 Gaussian 09, Revision D.01,
 Gaussian 09:  ES64L-G09RevD.01 24-Apr-2013

 ----------------------------------------------------------------------
 #p PBE1PBE/Def2TZVP scf=(maxcycle=768) opt=(cartesian,maxcycle=512) fr
 eq
 ----------------------------------------------------------------------

 ---------------------
 01Final_coords.xyz_11
 ---------------------
 Symbolic Z-matrix:
 Charge =  0 Multiplicity = 1

 SCF Done:  E(RPBE1PBE) =  -7517.81883978     A.U. after   17 cycles
 SCF Done:  E(RPBE1PBE) =  -7517.82465097     A.U. after   13 cycles
 SCF Done:  E(RPBE1PBE) =  -7517.82605424     A.U. after   12 cycles
 SCF Done:  E(RPBE1PBE) =  -7517.82618799     A.U. after   11 cycles
 SCF Done:  E(RPBE1PBE) =  -7517.82626624     A.U. after   10 cycles
 SCF Done:  E(RPBE1PBE) =  -7517.82629230     A.U. after   11 cycles
 SCF Done:  E(RPBE1PBE) =  -7517.82629735     A.U. after   10 cycles
 SCF Done:  E(RPBE1PBE) =  -7517.82629856     A.U. after    8 cycles
 Optimization completed.
    -- Stationary point found.
 Normal termination of Gaussian 09 at Tue Mar  6 15:25:14 2018.

 ----------------------------------------------------------------------
 #P Geom=AllCheck Guess=TCheck SCRF=Check GenChk RPBE1PBE/def2TZVP Freq
 ----------------------------------------------------------------------

 Structure from the checkpoint file:  "Isomer_11.chk"
 ---------------------
 01Final_coords.xyz_11
 ---------------------
 Charge =  0 Multiplicity = 1

                         Standard orientation:
 ---------------------------------------------------------------------
 Center     Atomic      Atomic             Coordinates (Angstroms)
 Number     Number       Type             X           Y           Z
 ---------------------------------------------------------------------
      1         50           0       -0.753702    2.580703    0.037910
      2         50           0       -0.659443   -1.597155    1.822358
      3         83           0        2.018985   -1.232923    0.540663
      4         32           0       -0.389321    0.756091   -2.285214
      5         32           0        0.993456    1.022276    1.991691
      6         83           0       -0.271365   -1.913773   -1.301276
      7         32           0       -1.585739    0.982182    2.187230
      8         83           0       -2.401208   -0.005518   -0.368970
      9         83           0        1.883330    1.495407   -0.721165
 ---------------------------------------------------------------------

 SCF Done:  E(RPBE1PBE) =  -7517.82629856     A.U. after    1 cycles

 The electronic state is 1-A.
 Alpha  occ. eigenvalues -- -399.09423-399.08989-399.08671 -49.91047 -49.90623
 Alpha  occ. eigenvalues --  -49.90362 -44.39132 -44.39113 -44.39048 -44.38695
 Alpha  occ. eigenvalues --  -44.38676 -44.38643 -44.38446 -44.38407 -44.38364
 Alpha  occ. eigenvalues --   -6.27585  -6.27149  -6.26917  -6.02370  -6.02148
 Alpha  occ. eigenvalues --   -6.01854  -6.01359  -5.13928  -5.13523  -4.43053
 Alpha  occ. eigenvalues --   -4.43000  -4.42783  -4.42590  -4.42522  -4.42413
 Alpha  occ. eigenvalues --   -4.42401  -4.42288  -4.42141  -3.74675  -3.74497
 Alpha  occ. eigenvalues --   -3.74431  -3.74373  -3.74248  -3.74188  -3.74163
 Alpha  occ. eigenvalues --   -3.74054  -3.73762  -3.73699  -3.73468  -3.73336
 Alpha  occ. eigenvalues --   -3.47194  -3.47080  -3.46872  -3.46773  -3.46645
 Alpha  occ. eigenvalues --   -3.46519  -1.22564  -1.22547  -1.22420  -1.22358
 Alpha  occ. eigenvalues --   -1.22291  -1.22073  -1.22056  -1.21962  -1.21895
 Alpha  occ. eigenvalues --   -1.21886  -1.21862  -1.21853  -1.21700  -1.21647
 Alpha  occ. eigenvalues --   -1.21573  -1.08829  -1.08539  -1.08398  -1.08299
 Alpha  occ. eigenvalues --   -1.08173  -1.08119  -1.08087  -1.08077  -1.08007
 Alpha  occ. eigenvalues --   -1.07886  -1.07652  -1.07516  -1.07432  -1.07330
 Alpha  occ. eigenvalues --   -1.07305  -1.07300  -1.07202  -1.07010  -1.06979
 Alpha  occ. eigenvalues --   -1.06916  -1.03409  -1.03389  -1.03221  -1.03175
 Alpha  occ. eigenvalues --   -1.03100  -1.02975  -1.02970  -1.02872  -1.02797
 Alpha  occ. eigenvalues --   -1.02721  -0.68000  -0.63014  -0.60243  -0.57323
 Alpha  occ. eigenvalues --   -0.52625  -0.46921  -0.43965  -0.43093  -0.40191
 Alpha  occ. eigenvalues --   -0.29808  -0.28097  -0.27264  -0.26173  -0.25001
 Alpha  occ. eigenvalues --   -0.24444  -0.23444  -0.23127  -0.22710  -0.21205
 Alpha  occ. eigenvalues --   -0.20471
 Alpha virt. eigenvalues --   -0.07657  -0.07146  -0.06741  -0.06174  -0.05719
 Alpha virt. eigenvalues --   -0.05529  -0.04358  -0.03986  -0.03679  -0.03394
 Alpha virt. eigenvalues --   -0.02405  -0.01813  -0.01394   0.04545   0.05886

 Mulliken charges:
               1
     1  Sn   0.083528
     2  Sn   0.072186
     3  Bi   0.018595
     4  Ge  -0.159044
     5  Ge  -0.055180
     6  Bi   0.034365
     7  Ge  -0.169950
     8  Bi   0.126997
     9  Bi   0.048502
 Sum of Mulliken charges =   0.00000

 Dipole moment (field-independent basis, Debye):
    X=              0.4116    Y=             -1.2755    Z=             -0.7397  Tot=              1.5308
 Quadrupole moment (field-independent basis, Debye-Ang):
   XX=           -213.8715   YY=           -216.6065   ZZ=           -224.0789
   XY=             -0.8989   XZ=             -0.4657   YZ=             -0.3604

  Exact polarizability: 373.849  -3.469 387.888  -6.075  -5.408 365.513
 Approx polarizability:1149.969 -24.9051178.531 -40.125  -3.7811167.437

                      1                      2                      3
                      A                      A                      A
 Frequencies --     45.4086                62.7009                77.2003
 Red. masses --    165.0995               150.6848               119.1171
 Frc consts  --      0.2006                 0.3490                 0.4183
 IR Inten    --      0.0269                 0.0175                 0.1279

                      4                      5                      6
                      A                      A                      A
 Frequencies --     82.9750                87.4390                95.2611
 Red. masses --    171.3686               168.2080               115.9852
 Frc consts  --      0.6951                 0.7577                 0.6201
 IR Inten    --      0.0723                 0.1284                 0.0155

                      7                      8                      9
                      A                      A                      A
 Frequencies --    105.3763               109.6937               110.8472
 Red. masses --    120.0452               155.8072               126.4702
 Frc consts  --      0.7854                 1.1046                 0.9156
 IR Inten    --      0.0502                 0.1253                 0.1496

                     10                     11                     12
                      A                      A                      A
 Frequencies --    113.8848               114.9307               122.5695
 Red. masses --    118.2643               112.1143               124.5050
 Frc consts  --      0.9037                 0.8725                 1.1021
 IR Inten    --      0.0929                 0.2082                 0.0996

                     13                     14                     15
                      A                      A                      A
 Frequencies --    133.0990               136.9854               144.5502
 Red. masses --    115.5668               115.7862               104.1614
 Frc consts  --      1.2062                 1.2801                 1.2823
 IR Inten    --      0.4046                 0.1136                 0.0918

                     16                     17                     18
                      A                      A                      A
 Frequencies --    157.8202               166.9886               168.6556
 Red. masses --     89.5931                85.3574                84.6475
 Frc consts  --      1.3148                 1.4024                 1.4186
 IR Inten    --      0.7343                 1.2300                 0.0874

                     19                     20                     21
                      A                      A                      A
 Frequencies --    169.8821               174.7922               203.7156
 Red. masses --     85.5511                86.7533                76.5439
 Frc consts  --      1.4547                 1.5616                 1.8716
 IR Inten    --      0.3660                 0.3133                 0.8268

 - Thermochemistry -
 -------------------
 Temperature   298.150 Kelvin.  Pressure   1.00000 Atm.
 Atom     1 has atomic number 50 and mass 117.90180

 Molecular mass:  1293.48874 amu.
 Principal axes and moments of inertia in atomic units:
                           1         2         3
     Eigenvalues --  ******************************
           X            0.99932  -0.03498  -0.01152
           Y            0.03491   0.99937  -0.00639
           Z            0.01173   0.00598   0.99991
 This molecule is an asymmetric top.
 Rotational symmetry number  1.
 Warning -- assumption of classical behavior for rotation
           may cause significant error
 Rotational temperatures (Kelvin)      0.00505     0.00468     0.00402
 Rotational constants (GHZ):           0.10524     0.09760     0.08383
 Zero-point vibrational energy      15460.4 (Joules/Mol)
                                    3.69512 (Kcal/Mol)
 Warning -- explicit consideration of  21 degrees of freedom as
           vibrations may cause significant error
 Vibrational temperatures:     65.33    90.21   111.07   119.38   125.80
          (Kelvin)            137.06   151.61   157.82   159.48   163.85
                              165.36   176.35   191.50   197.09   207.98
                              227.07   240.26   242.66   244.42   251.49
                              293.10

 Zero-point correction=                           0.005889 (Hartree/Particle)
 Thermal correction to Energy=                    0.023299
 Thermal correction to Enthalpy=                  0.024243
 Thermal correction to Gibbs Free Energy=        -0.047581
 Sum of electronic and zero-point Energies=          -7517.820410
 Sum of electronic and thermal Energies=             -7517.802999
 Sum of electronic and thermal Enthalpies=           -7517.802055
 Sum of electronic and thermal Free Energies=        -7517.873880

                     E (Thermal)             CV                S
                      KCal/Mol        Cal/Mol-Kelvin    Cal/Mol-Kelvin
 Total                   14.621             46.372            151.168
 Electronic               0.000              0.000              0.000
 Translational            0.889              2.981             47.349
 Rotational               0.889              2.981             37.166
 Vibrational             12.843             40.410             66.653
 Vibration     1          0.595              1.979              5.008
 Vibration     2          0.597              1.972              4.370
 Vibration     3          0.599              1.964              3.961
 Vibration     4          0.600              1.961              3.819
 Vibration     5          0.601              1.958              3.717
 Vibration     6          0.603              1.953              3.549
 Vibration     7          0.605              1.945              3.352
 Vibration     8          0.606              1.941              3.274
 Vibration     9          0.607              1.940              3.254
 Vibration    10          0.607              1.938              3.202
 Vibration    11          0.608              1.937              3.184
 Vibration    12          0.610              1.930              3.059
 Vibration    13          0.613              1.920              2.901
 Vibration    14          0.614              1.916              2.846
 Vibration    15          0.616              1.909              2.743
 Vibration    16          0.621              1.894              2.576
 Vibration    17          0.624              1.883              2.469
 Vibration    18          0.625              1.881              2.450
 Vibration    19          0.625              1.880              2.437
 Vibration    20          0.627              1.873              2.383
 Vibration    21          0.639              1.835              2.099

 Normal termination of Gaussian 09 at Tue Mar  6 17:22:18 2018.
