 Gaussian 09, Revision D.01,
 Gaussian 09:  ES64L-G09RevD.01 24-Apr-2013

 ----------------------------------------------------------------------
 #p PBE1PBE/Def2TZVP scf=(maxcycle=768) opt=(cartesian,maxcycle=512) fr
 eq
 ----------------------------------------------------------------------

 ---------------------
 01Final_coords.xyz_51
 ---------------------
 Symbolic Z-matrix:
 Charge =  0 Multiplicity = 1

 SCF Done:  E(RPBE1PBE) =  -7517.80636681     A.U. after   17 cycles
 SCF Done:  E(RPBE1PBE) =  -7517.81244100     A.U. after   13 cycles
 SCF Done:  E(RPBE1PBE) =  -7517.81397360     A.U. after   13 cycles
 SCF Done:  E(RPBE1PBE) =  -7517.81410405     A.U. after   12 cycles
 SCF Done:  E(RPBE1PBE) =  -7517.81420289     A.U. after   12 cycles
 SCF Done:  E(RPBE1PBE) =  -7517.81422786     A.U. after   10 cycles
 SCF Done:  E(RPBE1PBE) =  -7517.81423232     A.U. after   11 cycles
 SCF Done:  E(RPBE1PBE) =  -7517.81424135     A.U. after   10 cycles
 SCF Done:  E(RPBE1PBE) =  -7517.81424292     A.U. after    9 cycles
 Optimization completed.
    -- Stationary point found.
 Normal termination of Gaussian 09 at Tue Mar  6 18:10:42 2018.

 ----------------------------------------------------------------------
 #P Geom=AllCheck Guess=TCheck SCRF=Check GenChk RPBE1PBE/def2TZVP Freq
 ----------------------------------------------------------------------

 Structure from the checkpoint file:  "Isomer_51.chk"
 ---------------------
 01Final_coords.xyz_51
 ---------------------
 Charge =  0 Multiplicity = 1

                         Standard orientation:
 ---------------------------------------------------------------------
 Center     Atomic      Atomic             Coordinates (Angstroms)
 Number     Number       Type             X           Y           Z
 ---------------------------------------------------------------------
      1         32           0        0.839425    0.507144   -2.084976
      2         32           0        1.179128   -0.528252    2.272171
      3         83           0       -1.957977    0.947892   -0.710551
      4         50           0        2.315698    1.376023    0.551592
      5         83           0       -0.765047   -1.781648   -1.238079
      6         32           0       -0.282554    1.631106    1.842458
      7         83           0       -1.510554   -0.947607    1.621030
      8         83           0        2.056514   -1.426421   -0.358072
      9         50           0        0.187189    2.918501   -0.712354
 ---------------------------------------------------------------------

 SCF Done:  E(RPBE1PBE) =  -7517.81424292     A.U. after    1 cycles

 The electronic state is 1-A.
 Alpha  occ. eigenvalues -- -399.10012-399.09213-399.08284 -49.91604 -49.90836
 Alpha  occ. eigenvalues --  -49.89943 -44.39710 -44.39650 -44.39610 -44.38948
 Alpha  occ. eigenvalues --  -44.38867 -44.38844 -44.38020 -44.37984 -44.37967
 Alpha  occ. eigenvalues --   -6.28120  -6.27371  -6.26489  -6.02966  -6.02656
 Alpha  occ. eigenvalues --   -6.01919  -6.01315  -5.13125  -5.12980  -4.43643
 Alpha  occ. eigenvalues --   -4.43457  -4.43320  -4.42928  -4.42681  -4.42586
 Alpha  occ. eigenvalues --   -4.41960  -4.41821  -4.41773  -3.75248  -3.75158
 Alpha  occ. eigenvalues --   -3.74926  -3.74922  -3.74820  -3.74649  -3.74245
 Alpha  occ. eigenvalues --   -3.74128  -3.73817  -3.73675  -3.73428  -3.73269
 Alpha  occ. eigenvalues --   -3.46345  -3.46308  -3.46246  -3.46119  -3.46082
 Alpha  occ. eigenvalues --   -3.45952  -1.23097  -1.23053  -1.22924  -1.22789
 Alpha  occ. eigenvalues --   -1.22770  -1.22386  -1.22328  -1.22221  -1.22088
 Alpha  occ. eigenvalues --   -1.22030  -1.21410  -1.21386  -1.21339  -1.21211
 Alpha  occ. eigenvalues --   -1.21192  -1.09419  -1.09216  -1.08935  -1.08824
 Alpha  occ. eigenvalues --   -1.08710  -1.08651  -1.08552  -1.08417  -1.08334
 Alpha  occ. eigenvalues --   -1.08200  -1.07843  -1.07747  -1.07535  -1.07497
 Alpha  occ. eigenvalues --   -1.07413  -1.07335  -1.07189  -1.07021  -1.06916
 Alpha  occ. eigenvalues --   -1.06861  -1.02906  -1.02650  -1.02641  -1.02548
 Alpha  occ. eigenvalues --   -1.02457  -1.02416  -1.02358  -1.02201  -1.02076
 Alpha  occ. eigenvalues --   -1.01901  -0.68646  -0.62262  -0.59734  -0.58317
 Alpha  occ. eigenvalues --   -0.52100  -0.48490  -0.43785  -0.42214  -0.39673
 Alpha  occ. eigenvalues --   -0.30191  -0.28155  -0.26889  -0.26041  -0.25722
 Alpha  occ. eigenvalues --   -0.25139  -0.23505  -0.22653  -0.21657  -0.21232
 Alpha  occ. eigenvalues --   -0.20106
 Alpha virt. eigenvalues --   -0.07701  -0.07351  -0.06817  -0.06603  -0.05906
 Alpha virt. eigenvalues --   -0.05511  -0.04980  -0.04461  -0.04059  -0.02471
 Alpha virt. eigenvalues --   -0.01923  -0.01647  -0.00867   0.04464   0.05974

 Mulliken charges:
               1
     1  Ge  -0.078436
     2  Ge  -0.135208
     3  Bi   0.119190
     4  Sn   0.083965
     5  Bi   0.022560
     6  Ge  -0.063557
     7  Bi   0.046183
     8  Bi   0.040521
     9  Sn  -0.035218
 Sum of Mulliken charges =   0.00000

 Dipole moment (field-independent basis, Debye):
    X=             -1.4313    Y=             -1.2082    Z=             -1.1266  Tot=              2.1858
 Quadrupole moment (field-independent basis, Debye-Ang):
   XX=           -215.3267   YY=           -214.1932   ZZ=           -224.7187
   XY=              0.9532   XZ=              0.1535   YZ=             -0.4233

  Exact polarizability: 382.030   7.372 394.475   4.249  -4.732 356.712
 Approx polarizability:1171.846  28.1241251.016  20.321 -25.6531132.020

                      1                      2                      3
                      A                      A                      A
 Frequencies --     38.0350                56.7321                72.0361
 Red. masses --    154.8484               124.3608               153.2204
 Frc consts  --      0.1320                 0.2358                 0.4685
 IR Inten    --      0.0150                 0.0417                 0.0780

                      4                      5                      6
                      A                      A                      A
 Frequencies --     82.2626                89.1897                93.7965
 Red. masses --    152.8700               162.0051               145.4459
 Frc consts  --      0.6095                 0.7593                 0.7539
 IR Inten    --      0.1227                 0.1235                 0.0895

                      7                      8                      9
                      A                      A                      A
 Frequencies --    100.0160               101.5272               106.3556
 Red. masses --    117.0333               122.7924               118.0108
 Frc consts  --      0.6898                 0.7457                 0.7865
 IR Inten    --      0.1822                 0.1105                 0.0825

                     10                     11                     12
                      A                      A                      A
 Frequencies --    118.5399               121.8213               128.7292
 Red. masses --    129.8553               127.2237                96.1221
 Frc consts  --      1.0751                 1.1124                 0.9385
 IR Inten    --      0.1724                 0.1917                 0.4515

                     13                     14                     15
                      A                      A                      A
 Frequencies --    135.5928               140.1825               142.5000
 Red. masses --    147.2587               110.7146                90.6809
 Frc consts  --      1.5952                 1.2819                 1.0849
 IR Inten    --      0.0290                 0.3407                 0.0867

                     16                     17                     18
                      A                      A                      A
 Frequencies --    152.1042               154.4425               163.5829
 Red. masses --     81.4017                96.0839                89.1851
 Frc consts  --      1.1096                 1.3503                 1.4061
 IR Inten    --      0.0289                 0.0433                 0.0579

                     19                     20                     21
                      A                      A                      A
 Frequencies --    176.6411               182.7466               191.0566
 Red. masses --     91.3066                88.3866                78.6340
 Frc consts  --      1.6786                 1.7391                 1.6912
 IR Inten    --      1.8490                 0.2093                 0.5208

 - Thermochemistry -
 -------------------
 Temperature   298.150 Kelvin.  Pressure   1.00000 Atm.
 Atom     1 has atomic number 32 and mass  73.92118

 Molecular mass:  1293.48874 amu.
 Principal axes and moments of inertia in atomic units:
                           1         2         3
     Eigenvalues --  ******************************
           X            0.98619   0.16521   0.01166
           Y           -0.16516   0.98625  -0.00553
           Z           -0.01242   0.00353   0.99992
 This molecule is an asymmetric top.
 Rotational symmetry number  1.
 Warning -- assumption of classical behavior for rotation
           may cause significant error
 Rotational temperatures (Kelvin)      0.00488     0.00472     0.00404
 Rotational constants (GHZ):           0.10163     0.09839     0.08413
 Zero-point vibrational energy      15239.8 (Joules/Mol)
                                    3.64239 (Kcal/Mol)
 Warning -- explicit consideration of  21 degrees of freedom as
           vibrations may cause significant error
 Vibrational temperatures:     54.72    81.62   103.64   118.36   128.32
          (Kelvin)            134.95   143.90   146.07   153.02   170.55
                              175.27   185.21   195.09   201.69   205.03
                              218.84   222.21   235.36   254.15   262.93
                              274.89

 Zero-point correction=                           0.005805 (Hartree/Particle)
 Thermal correction to Energy=                    0.023285
 Thermal correction to Enthalpy=                  0.024229
 Thermal correction to Gibbs Free Energy=        -0.048046
 Sum of electronic and zero-point Energies=          -7517.808438
 Sum of electronic and thermal Energies=             -7517.790958
 Sum of electronic and thermal Enthalpies=           -7517.790014
 Sum of electronic and thermal Free Energies=        -7517.862289

                     E (Thermal)             CV                S
                      KCal/Mol        Cal/Mol-Kelvin    Cal/Mol-Kelvin
 Total                   14.611             46.401            152.116
 Electronic               0.000              0.000              0.000
 Translational            0.889              2.981             47.349
 Rotational               0.889              2.981             37.189
 Vibrational             12.834             40.440             67.579
 Vibration     1          0.594              1.982              5.359
 Vibration     2          0.596              1.975              4.568
 Vibration     3          0.598              1.967              4.097
 Vibration     4          0.600              1.961              3.836
 Vibration     5          0.602              1.957              3.678
 Vibration     6          0.603              1.954              3.579
 Vibration     7          0.604              1.949              3.454
 Vibration     8          0.604              1.948              3.425
 Vibration     9          0.605              1.944              3.334
 Vibration    10          0.609              1.934              3.124
 Vibration    11          0.609              1.931              3.071
 Vibration    12          0.611              1.925              2.965
 Vibration    13          0.613              1.918              2.865
 Vibration    14          0.615              1.913              2.801
 Vibration    15          0.616              1.911              2.770
 Vibration    16          0.619              1.900              2.646
 Vibration    17          0.620              1.898              2.617
 Vibration    18          0.623              1.887              2.508
 Vibration    19          0.628              1.871              2.364
 Vibration    20          0.630              1.863              2.300
 Vibration    21          0.634              1.852              2.218

 Normal termination of Gaussian 09 at Tue Mar  6 19:24:36 2018.
