 Gaussian 09, Revision D.01,
 Gaussian 09:  ES64L-G09RevD.01 24-Apr-2013

 ----------------------------------------------------------------------
 #p PBE1PBE/Def2TZVP scf=(maxcycle=768) opt=(cartesian,maxcycle=512) fr
 eq
 ----------------------------------------------------------------------

 ---------------------
 01Final_coords.xyz_12
 ---------------------
 Symbolic Z-matrix:
 Charge =  0 Multiplicity = 1

 SCF Done:  E(RPBE1PBE) =  -7517.81676398     A.U. after   16 cycles
 SCF Done:  E(RPBE1PBE) =  -7517.82191860     A.U. after   12 cycles
 SCF Done:  E(RPBE1PBE) =  -7517.82306574     A.U. after   12 cycles
 SCF Done:  E(RPBE1PBE) =  -7517.82316545     A.U. after   11 cycles
 SCF Done:  E(RPBE1PBE) =  -7517.82323122     A.U. after   11 cycles
 SCF Done:  E(RPBE1PBE) =  -7517.82324444     A.U. after   10 cycles
 SCF Done:  E(RPBE1PBE) =  -7517.82324722     A.U. after    9 cycles
 Optimization completed.
    -- Stationary point found.
 Normal termination of Gaussian 09 at Tue Mar  6 13:22:00 2018.

 ----------------------------------------------------------------------
 #P Geom=AllCheck Guess=TCheck SCRF=Check GenChk RPBE1PBE/def2TZVP Freq
 ----------------------------------------------------------------------

 Structure from the checkpoint file:  "Isomer_12.chk"
 ---------------------
 01Final_coords.xyz_12
 ---------------------
 Charge =  0 Multiplicity = 1

                         Standard orientation:
 ---------------------------------------------------------------------
 Center     Atomic      Atomic             Coordinates (Angstroms)
 Number     Number       Type             X           Y           Z
 ---------------------------------------------------------------------
      1         83           0        1.882228   -1.529896    0.654994
      2         83           0       -1.936603    0.963957    1.030896
      3         83           0        1.936356    0.964303   -1.031428
      4         50           0       -0.975123    0.990514   -2.098454
      5         50           0        0.974390    0.989722    2.099479
      6         83           0       -1.881787   -1.530387   -0.655267
      7         32           0        0.632577   -1.431130   -1.922236
      8         32           0       -0.632235   -1.431517    1.922050
      9         32           0        0.000301    2.704710    0.000675
 ---------------------------------------------------------------------

 SCF Done:  E(RPBE1PBE) =  -7517.82324722     A.U. after    1 cycles

 The electronic state is 1-A.
 Alpha  occ. eigenvalues -- -399.09295-399.09188-399.09187 -49.90963 -49.90829
 Alpha  occ. eigenvalues --  -49.90828 -44.39034 -44.39004 -44.38986 -44.38897
 Alpha  occ. eigenvalues --  -44.38897 -44.38875 -44.38874 -44.38860 -44.38859
 Alpha  occ. eigenvalues --   -6.27504  -6.27363  -6.27362  -6.02390  -6.02389
 Alpha  occ. eigenvalues --   -6.01261  -6.01258  -5.13757  -5.13755  -4.42958
 Alpha  occ. eigenvalues --   -4.42842  -4.42799  -4.42798  -4.42788  -4.42712
 Alpha  occ. eigenvalues --   -4.42711  -4.42655  -4.42654  -3.74659  -3.74658
 Alpha  occ. eigenvalues --   -3.74554  -3.74553  -3.74399  -3.74397  -3.73598
 Alpha  occ. eigenvalues --   -3.73595  -3.73412  -3.73409  -3.73196  -3.73194
 Alpha  occ. eigenvalues --   -3.47007  -3.47006  -3.46826  -3.46824  -3.46797
 Alpha  occ. eigenvalues --   -3.46796  -1.22424  -1.22395  -1.22369  -1.22271
 Alpha  occ. eigenvalues --   -1.22269  -1.22265  -1.22242  -1.22241  -1.22230
 Alpha  occ. eigenvalues --   -1.22216  -1.22214  -1.22115  -1.22107  -1.22104
 Alpha  occ. eigenvalues --   -1.22099  -1.08632  -1.08624  -1.08387  -1.08382
 Alpha  occ. eigenvalues --   -1.08282  -1.08265  -1.08156  -1.08132  -1.08045
 Alpha  occ. eigenvalues --   -1.08012  -1.07249  -1.07246  -1.07128  -1.07126
 Alpha  occ. eigenvalues --   -1.07058  -1.07016  -1.06865  -1.06851  -1.06843
 Alpha  occ. eigenvalues --   -1.06773  -1.03188  -1.03183  -1.03163  -1.03145
 Alpha  occ. eigenvalues --   -1.03131  -1.03106  -1.03026  -1.03009  -1.02954
 Alpha  occ. eigenvalues --   -1.02946  -0.67959  -0.63560  -0.59679  -0.58364
 Alpha  occ. eigenvalues --   -0.49199  -0.48212  -0.45165  -0.42895  -0.40241
 Alpha  occ. eigenvalues --   -0.29882  -0.27899  -0.27172  -0.26196  -0.25247
 Alpha  occ. eigenvalues --   -0.24595  -0.24063  -0.22996  -0.21889  -0.21453
 Alpha  occ. eigenvalues --   -0.20351
 Alpha virt. eigenvalues --   -0.07338  -0.06893  -0.06680  -0.06001  -0.05762
 Alpha virt. eigenvalues --   -0.05291  -0.04936  -0.04522  -0.04306  -0.02973
 Alpha virt. eigenvalues --   -0.02818  -0.02369  -0.00143   0.05085   0.05541

 Mulliken charges:
               1
     1  Bi   0.046882
     2  Bi   0.134941
     3  Bi   0.134957
     4  Sn   0.074902
     5  Sn   0.074976
     6  Bi   0.047005
     7  Ge  -0.151649
     8  Ge  -0.151673
     9  Ge  -0.210340
 Sum of Mulliken charges =   0.00000

 Dipole moment (field-independent basis, Debye):
    X=             -0.0010    Y=              0.1836    Z=             -0.0003  Tot=              0.1836
 Quadrupole moment (field-independent basis, Debye-Ang):
   XX=           -213.7199   YY=           -219.1999   ZZ=           -221.4201
   XY=              0.0013   XZ=             -0.2835   YZ=              0.0013

  Exact polarizability: 374.838   0.003 373.017  10.093   0.005 379.197
 Approx polarizability:1126.542   0.0791224.126  24.302   0.0741180.151

                      1                      2                      3
                      A                      A                      A
 Frequencies --     41.7983                56.3305                76.4511
 Red. masses --    140.3799               129.7926               172.8160
 Frc consts  --      0.1445                 0.2427                 0.5951
 IR Inten    --      0.0138                 0.1971                 0.0205

                      4                      5                      6
                      A                      A                      A
 Frequencies --     87.0015                88.1629                89.2259
 Red. masses --    133.9977               173.0147               156.3387
 Frc consts  --      0.5976                 0.7923                 0.7333
 IR Inten    --      0.0915                 0.0001                 0.1026

                      7                      8                      9
                      A                      A                      A
 Frequencies --     92.0971               106.1971               110.3653
 Red. masses --    143.9635               143.0771               110.4917
 Frc consts  --      0.7194                 0.9507                 0.7929
 IR Inten    --      0.0108                 0.0656                 0.2754

                     10                     11                     12
                      A                      A                      A
 Frequencies --    115.7160               116.5796               128.2737
 Red. masses --    146.4117               113.3158                91.6380
 Frc consts  --      1.1551                 0.9074                 0.8884
 IR Inten    --      0.4883                 0.0370                 0.0328

                     13                     14                     15
                      A                      A                      A
 Frequencies --    132.6599               145.6109               148.3963
 Red. masses --    138.4427                95.8788                93.9525
 Frc consts  --      1.4355                 1.1977                 1.2190
 IR Inten    --      0.1225                 1.4312                 0.2579

                     16                     17                     18
                      A                      A                      A
 Frequencies --    166.0829               166.9085               170.6628
 Red. masses --     84.2555                88.6854                85.0916
 Frc consts  --      1.3693                 1.4557                 1.4602
 IR Inten    --      0.0246                 0.4387                 1.1977

                     19                     20                     21
                      A                      A                      A
 Frequencies --    171.7915               173.6242               180.8982
 Red. masses --     85.9101                89.2363                84.0285
 Frc consts  --      1.4938                 1.5849                 1.6201
 IR Inten    --      0.1293                 0.3575                 0.5265

 - Thermochemistry -
 -------------------
 Temperature   298.150 Kelvin.  Pressure   1.00000 Atm.
 Atom     1 has atomic number 83 and mass 208.98040

 Molecular mass:  1293.48874 amu.
 Principal axes and moments of inertia in atomic units:
                           1         2         3
     Eigenvalues --  ******************************
           X            0.99989  -0.00001   0.01473
           Y            0.00001   1.00000   0.00002
           Z           -0.01473  -0.00002   0.99989
 This molecule is an asymmetric top.
 Rotational symmetry number  1.
 Warning -- assumption of classical behavior for rotation
           may cause significant error
 Rotational temperatures (Kelvin)      0.00522     0.00438     0.00420
 Rotational constants (GHZ):           0.10867     0.09123     0.08754
 Zero-point vibrational energy      15341.1 (Joules/Mol)
                                    3.66661 (Kcal/Mol)
 Warning -- explicit consideration of  21 degrees of freedom as
           vibrations may cause significant error
 Vibrational temperatures:     60.14    81.05   110.00   125.18   126.85
          (Kelvin)            128.38   132.51   152.79   158.79   166.49
                              167.73   184.56   190.87   209.50   213.51
                              238.96   240.14   245.55   247.17   249.81
                              260.27

 Zero-point correction=                           0.005843 (Hartree/Particle)
 Thermal correction to Energy=                    0.023291
 Thermal correction to Enthalpy=                  0.024235
 Thermal correction to Gibbs Free Energy=        -0.047840
 Sum of electronic and zero-point Energies=          -7517.817404
 Sum of electronic and thermal Energies=             -7517.799956
 Sum of electronic and thermal Enthalpies=           -7517.799012
 Sum of electronic and thermal Free Energies=        -7517.871087

                     E (Thermal)             CV                S
                      KCal/Mol        Cal/Mol-Kelvin    Cal/Mol-Kelvin
 Total                   14.615             46.388            151.695
 Electronic               0.000              0.000              0.000
 Translational            0.889              2.981             47.349
 Rotational               0.889              2.981             37.158
 Vibrational             12.838             40.426             67.188
 Vibration     1          0.594              1.980              5.172
 Vibration     2          0.596              1.975              4.582
 Vibration     3          0.599              1.965              3.980
 Vibration     4          0.601              1.958              3.726
 Vibration     5          0.601              1.958              3.700
 Vibration     6          0.602              1.957              3.677
 Vibration     7          0.602              1.955              3.615
 Vibration     8          0.605              1.944              3.337
 Vibration     9          0.606              1.941              3.262
 Vibration    10          0.608              1.936              3.171
 Vibration    11          0.608              1.936              3.156
 Vibration    12          0.611              1.925              2.972
 Vibration    13          0.613              1.921              2.907
 Vibration    14          0.617              1.907              2.729
 Vibration    15          0.618              1.904              2.693
 Vibration    16          0.624              1.884              2.479
 Vibration    17          0.624              1.883              2.470
 Vibration    18          0.626              1.879              2.428
 Vibration    19          0.626              1.877              2.416
 Vibration    20          0.627              1.875              2.396
 Vibration    21          0.630              1.866              2.319

 Normal termination of Gaussian 09 at Tue Mar  6 14:18:12 2018.
