 Gaussian 09, Revision D.01,
 Gaussian 09:  ES64L-G09RevD.01 24-Apr-2013

 ----------------------------------------------------------------------
 #p PBE1PBE/Def2TZVP scf=(maxcycle=768) opt=(cartesian,maxcycle=512) fr
 eq
 ----------------------------------------------------------------------

 ---------------------
 01Final_coords.xyz_45
 ---------------------
 Symbolic Z-matrix:
 Charge =  0 Multiplicity = 1

 SCF Done:  E(RPBE1PBE) =  -7517.80800214     A.U. after   16 cycles
 SCF Done:  E(RPBE1PBE) =  -7517.81353387     A.U. after   13 cycles
 SCF Done:  E(RPBE1PBE) =  -7517.81479756     A.U. after   12 cycles
 SCF Done:  E(RPBE1PBE) =  -7517.81489190     A.U. after   11 cycles
 SCF Done:  E(RPBE1PBE) =  -7517.81495632     A.U. after   11 cycles
 SCF Done:  E(RPBE1PBE) =  -7517.81496403     A.U. after   10 cycles
 SCF Done:  E(RPBE1PBE) =  -7517.81496478     A.U. after   11 cycles
 SCF Done:  E(RPBE1PBE) =  -7517.81496687     A.U. after   10 cycles
 SCF Done:  E(RPBE1PBE) =  -7517.81496869     A.U. after   10 cycles
 SCF Done:  E(RPBE1PBE) =  -7517.81496713     A.U. after   11 cycles
 SCF Done:  E(RPBE1PBE) =  -7517.81496934     A.U. after    4 cycles
 Optimization completed.
    -- Stationary point found.
 Normal termination of Gaussian 09 at Tue Mar  6 17:27:24 2018.

 ----------------------------------------------------------------------
 #P Geom=AllCheck Guess=TCheck SCRF=Check GenChk RPBE1PBE/def2TZVP Freq
 ----------------------------------------------------------------------

 Structure from the checkpoint file:  "Isomer_45.chk"
 ---------------------
 01Final_coords.xyz_45
 ---------------------
 Charge =  0 Multiplicity = 1

                         Standard orientation:
 ---------------------------------------------------------------------
 Center     Atomic      Atomic             Coordinates (Angstroms)
 Number     Number       Type             X           Y           Z
 ---------------------------------------------------------------------
      1         32           0        1.213200   -2.023343   -1.448586
      2         50           0        1.026647    2.338489    0.507757
      3         32           0        0.951841    0.201360    2.482074
      4         83           0        2.566022   -0.212970    0.213680
      5         83           0       -1.640209    1.583544   -0.655099
      6         50           0        0.890244    0.787104   -2.162865
      7         83           0       -1.440168   -1.410577   -1.118110
      8         32           0        0.503993   -2.133059    1.172346
      9         83           0       -1.669424   -0.318048    1.706141
 ---------------------------------------------------------------------

 SCF Done:  E(RPBE1PBE) =  -7517.81496934     A.U. after    1 cycles

 The electronic state is 1-A.
 Alpha  occ. eigenvalues -- -399.09931-399.09260-399.08335 -49.91524 -49.90928
 Alpha  occ. eigenvalues --  -49.90003 -44.39625 -44.39557 -44.39545 -44.38993
 Alpha  occ. eigenvalues --  -44.38976 -44.38951 -44.38077 -44.38054 -44.38016
 Alpha  occ. eigenvalues --   -6.28055  -6.27476  -6.26545  -6.02935  -6.02284
 Alpha  occ. eigenvalues --   -6.01989  -6.01849  -5.13603  -5.12636  -4.43569
 Alpha  occ. eigenvalues --   -4.43345  -4.43315  -4.42914  -4.42830  -4.42761
 Alpha  occ. eigenvalues --   -4.42014  -4.41924  -4.41783  -3.75214  -3.75149
 Alpha  occ. eigenvalues --   -3.74886  -3.74607  -3.74464  -3.74217  -3.74211
 Alpha  occ. eigenvalues --   -3.74192  -3.74162  -3.74013  -3.74000  -3.73793
 Alpha  occ. eigenvalues --   -3.46877  -3.46650  -3.46636  -3.45892  -3.45775
 Alpha  occ. eigenvalues --   -3.45595  -1.23028  -1.22951  -1.22929  -1.22805
 Alpha  occ. eigenvalues --   -1.22751  -1.22378  -1.22361  -1.22338  -1.22211
 Alpha  occ. eigenvalues --   -1.22205  -1.21516  -1.21485  -1.21353  -1.21260
 Alpha  occ. eigenvalues --   -1.21256  -1.09256  -1.09195  -1.08842  -1.08657
 Alpha  occ. eigenvalues --   -1.08623  -1.08529  -1.08136  -1.08106  -1.07987
 Alpha  occ. eigenvalues --   -1.07949  -1.07883  -1.07876  -1.07836  -1.07817
 Alpha  occ. eigenvalues --   -1.07695  -1.07642  -1.07592  -1.07472  -1.07398
 Alpha  occ. eigenvalues --   -1.07345  -1.03089  -1.02996  -1.02971  -1.02885
 Alpha  occ. eigenvalues --   -1.02783  -1.02100  -1.02062  -1.01930  -1.01790
 Alpha  occ. eigenvalues --   -1.01775  -0.68551  -0.63321  -0.59698  -0.59052
 Alpha  occ. eigenvalues --   -0.48998  -0.48381  -0.46487  -0.40987  -0.40227
 Alpha  occ. eigenvalues --   -0.30346  -0.27729  -0.27169  -0.26982  -0.25390
 Alpha  occ. eigenvalues --   -0.24746  -0.23910  -0.23284  -0.22174  -0.20735
 Alpha  occ. eigenvalues --   -0.19595
 Alpha virt. eigenvalues --   -0.07700  -0.07263  -0.06860  -0.06408  -0.05748
 Alpha virt. eigenvalues --   -0.05595  -0.04622  -0.04527  -0.04245  -0.03063
 Alpha virt. eigenvalues --   -0.02182  -0.02002  -0.00671   0.04848   0.05665

 Mulliken charges:
               1
     1  Ge  -0.181851
     2  Sn   0.007707
     3  Ge  -0.173966
     4  Bi   0.143437
     5  Bi  -0.035263
     6  Sn   0.037937
     7  Bi   0.143031
     8  Ge  -0.035811
     9  Bi   0.094779
 Sum of Mulliken charges =   0.00000

 Dipole moment (field-independent basis, Debye):
    X=             -1.4114    Y=              0.3338    Z=             -0.6762  Tot=              1.6002
 Quadrupole moment (field-independent basis, Debye-Ang):
   XX=           -212.5607   YY=           -221.4512   ZZ=           -221.2806
   XY=             -0.2811   XZ=             -0.9301   YZ=              0.9699

  Exact polarizability: 378.713   2.352 380.034  -1.265   1.875 375.965
 Approx polarizability:1153.523 -24.7951213.707  -2.344  33.4661213.678

                      1                      2                      3
                      A                      A                      A
 Frequencies --     15.0461                61.5960                72.8898
 Red. masses --    133.3824               112.7331               163.7931
 Frc consts  --      0.0178                 0.2520                 0.5127
 IR Inten    --      0.0978                 0.2534                 0.0370

                      4                      5                      6
                      A                      A                      A
 Frequencies --     77.3500                90.1014                91.1336
 Red. masses --    140.5462               154.5703               166.6991
 Frc consts  --      0.4954                 0.7393                 0.8157
 IR Inten    --      0.0325                 0.2333                 0.0642

                      7                      8                      9
                      A                      A                      A
 Frequencies --     92.7773               100.0848               103.8487
 Red. masses --    160.8473               149.7062               115.6628
 Frc consts  --      0.8157                 0.8835                 0.7349
 IR Inten    --      0.1337                 0.1426                 0.0971

                     10                     11                     12
                      A                      A                      A
 Frequencies --    114.4675               118.6359               123.5178
 Red. masses --    107.9146               101.3228               117.7990
 Frc consts  --      0.8331                 0.8402                 1.0589
 IR Inten    --      0.3854                 0.0753                 0.2764

                     13                     14                     15
                      A                      A                      A
 Frequencies --    135.2118               139.8595               143.7814
 Red. masses --    110.8947               141.3759               109.8920
 Frc consts  --      1.1945                 1.6293                 1.3385
 IR Inten    --      0.5270                 0.2113                 0.7321

                     16                     17                     18
                      A                      A                      A
 Frequencies --    150.6069               158.2882               176.8974
 Red. masses --     96.5928                78.1451                86.5191
 Frc consts  --      1.2909                 1.1536                 1.5952
 IR Inten    --      0.1492                 0.0226                 0.8490

                     19                     20                     21
                      A                      A                      A
 Frequencies --    179.9954               181.7257               189.0073
 Red. masses --     85.0624                82.5193                81.0364
 Frc consts  --      1.6237                 1.6056                 1.7056
 IR Inten    --      0.1657                 0.4009                 0.5398

 - Thermochemistry -
 -------------------
 Temperature   298.150 Kelvin.  Pressure   1.00000 Atm.
 Atom     1 has atomic number 32 and mass  73.92118

 Molecular mass:  1293.48874 amu.
 Principal axes and moments of inertia in atomic units:
                           1         2         3
     Eigenvalues --  ******************************
           X            0.99999   0.00256  -0.00286
           Y           -0.00247   0.99953   0.03055
           Z            0.00293  -0.03054   0.99953
 This molecule is an asymmetric top.
 Rotational symmetry number  1.
 Warning -- assumption of classical behavior for rotation
           may cause significant error
 Rotational temperatures (Kelvin)      0.00528     0.00431     0.00426
 Rotational constants (GHZ):           0.11003     0.08979     0.08873
 Zero-point vibrational energy      15053.9 (Joules/Mol)
                                    3.59798 (Kcal/Mol)
 Warning -- explicit consideration of  21 degrees of freedom as
           vibrations may cause significant error
 Vibrational temperatures:     21.65    88.62   104.87   111.29   129.64
          (Kelvin)            131.12   133.49   144.00   149.41   164.69
                              170.69   177.71   194.54   201.23   206.87
                              216.69   227.74   254.52   258.97   261.46
                              271.94

 Zero-point correction=                           0.005734 (Hartree/Particle)
 Thermal correction to Energy=                    0.023282
 Thermal correction to Enthalpy=                  0.024226
 Thermal correction to Gibbs Free Energy=        -0.049001
 Sum of electronic and zero-point Energies=          -7517.809236
 Sum of electronic and thermal Energies=             -7517.791687
 Sum of electronic and thermal Enthalpies=           -7517.790743
 Sum of electronic and thermal Free Energies=        -7517.863970

                     E (Thermal)             CV                S
                      KCal/Mol        Cal/Mol-Kelvin    Cal/Mol-Kelvin
 Total                   14.610             46.407            154.120
 Electronic               0.000              0.000              0.000
 Translational            0.889              2.981             47.349
 Rotational               0.889              2.981             37.148
 Vibrational             12.832             40.446             69.624
 Vibration     1          0.593              1.986              7.199
 Vibration     2          0.597              1.973              4.405
 Vibration     3          0.599              1.967              4.074
 Vibration     4          0.599              1.964              3.957
 Vibration     5          0.602              1.956              3.658
 Vibration     6          0.602              1.955              3.636
 Vibration     7          0.602              1.954              3.601
 Vibration     8          0.604              1.949              3.453
 Vibration     9          0.605              1.946              3.381
 Vibration    10          0.607              1.937              3.192
 Vibration    11          0.609              1.934              3.122
 Vibration    12          0.610              1.929              3.045
 Vibration    13          0.613              1.918              2.871
 Vibration    14          0.615              1.913              2.806
 Vibration    15          0.616              1.909              2.753
 Vibration    16          0.618              1.902              2.665
 Vibration    17          0.621              1.893              2.570
 Vibration    18          0.628              1.871              2.361
 Vibration    19          0.629              1.867              2.328
 Vibration    20          0.630              1.865              2.311
 Vibration    21          0.633              1.855              2.238

 Normal termination of Gaussian 09 at Tue Mar  6 18:23:54 2018.
