 Gaussian 09, Revision D.01,
 Gaussian 09:  ES64L-G09RevD.01 24-Apr-2013

 ----------------------------------------------------------------------
 #p PBE1PBE/Def2TZVP scf=(maxcycle=768) opt=(cartesian,maxcycle=512) fr
 eq
 ----------------------------------------------------------------------

 ---------------------
 01Final_coords.xyz_06
 ---------------------
 Symbolic Z-matrix:
 Charge =  0 Multiplicity = 1

 SCF Done:  E(RPBE1PBE) =  -7517.82120744     A.U. after   17 cycles
 SCF Done:  E(RPBE1PBE) =  -7517.82713709     A.U. after   13 cycles
 SCF Done:  E(RPBE1PBE) =  -7517.82863346     A.U. after   12 cycles
 SCF Done:  E(RPBE1PBE) =  -7517.82878141     A.U. after   11 cycles
 SCF Done:  E(RPBE1PBE) =  -7517.82888217     A.U. after   11 cycles
 SCF Done:  E(RPBE1PBE) =  -7517.82890780     A.U. after   11 cycles
 SCF Done:  E(RPBE1PBE) =  -7517.82891100     A.U. after    9 cycles
 Optimization completed.
    -- Stationary point found.
 Normal termination of Gaussian 09 at Tue Mar  6 15:03:16 2018.

 ----------------------------------------------------------------------
 #P Geom=AllCheck Guess=TCheck SCRF=Check GenChk RPBE1PBE/def2TZVP Freq
 ----------------------------------------------------------------------

 Structure from the checkpoint file:  "Isomer_06.chk"
 ---------------------
 01Final_coords.xyz_06
 ---------------------
 Charge =  0 Multiplicity = 1

                         Standard orientation:
 ---------------------------------------------------------------------
 Center     Atomic      Atomic             Coordinates (Angstroms)
 Number     Number       Type             X           Y           Z
 ---------------------------------------------------------------------
      1         83           0        2.347471   -0.658574    0.017680
      2         83           0       -2.187237   -1.294257   -0.336646
      3         32           0        0.113398   -2.395800    0.847589
      4         32           0       -1.299323   -0.247367    2.153970
      5         32           0        1.176735   -0.759830    2.588480
      6         83           0       -1.701519    1.668208    0.031028
      7         83           0        0.829094    1.430527   -1.581380
      8         50           0        0.300601   -1.543474   -2.000820
      9         50           0        0.887519    1.819192    1.526261
 ---------------------------------------------------------------------

 SCF Done:  E(RPBE1PBE) =  -7517.82891100     A.U. after    1 cycles

 The electronic state is 1-A.
 Alpha  occ. eigenvalues -- -399.09568-399.09521-399.08737 -49.91191 -49.91150
 Alpha  occ. eigenvalues --  -49.90429 -44.39277 -44.39242 -44.39234 -44.39212
 Alpha  occ. eigenvalues --  -44.39205 -44.39154 -44.38509 -44.38475 -44.38431
 Alpha  occ. eigenvalues --   -6.27733  -6.27697  -6.26992  -6.02415  -6.02115
 Alpha  occ. eigenvalues --   -6.01658  -6.01400  -5.13891  -5.13122  -4.43206
 Alpha  occ. eigenvalues --   -4.43165  -4.43102  -4.43093  -4.42978  -4.42907
 Alpha  occ. eigenvalues --   -4.42481  -4.42365  -4.42222  -3.74723  -3.74520
 Alpha  occ. eigenvalues --   -3.74437  -3.74412  -3.74191  -3.74165  -3.73973
 Alpha  occ. eigenvalues --   -3.73861  -3.73739  -3.73545  -3.73519  -3.73371
 Alpha  occ. eigenvalues --   -3.47155  -3.47051  -3.46827  -3.46327  -3.46279
 Alpha  occ. eigenvalues --   -3.46110  -1.22707  -1.22683  -1.22670  -1.22647
 Alpha  occ. eigenvalues --   -1.22614  -1.22565  -1.22527  -1.22480  -1.22435
 Alpha  occ. eigenvalues --   -1.22360  -1.21951  -1.21904  -1.21772  -1.21688
 Alpha  occ. eigenvalues --   -1.21643  -1.08750  -1.08485  -1.08400  -1.08326
 Alpha  occ. eigenvalues --   -1.08184  -1.08133  -1.08101  -1.08045  -1.07979
 Alpha  occ. eigenvalues --   -1.07829  -1.07518  -1.07379  -1.07347  -1.07298
 Alpha  occ. eigenvalues --   -1.07261  -1.07157  -1.07122  -1.07036  -1.07001
 Alpha  occ. eigenvalues --   -1.06945  -1.03376  -1.03358  -1.03172  -1.03123
 Alpha  occ. eigenvalues --   -1.03061  -1.02568  -1.02550  -1.02408  -1.02338
 Alpha  occ. eigenvalues --   -1.02300  -0.67905  -0.63014  -0.60870  -0.56911
 Alpha  occ. eigenvalues --   -0.53038  -0.47258  -0.43527  -0.42873  -0.40453
 Alpha  occ. eigenvalues --   -0.29809  -0.27879  -0.27532  -0.26226  -0.25262
 Alpha  occ. eigenvalues --   -0.24497  -0.23409  -0.23099  -0.22712  -0.21372
 Alpha  occ. eigenvalues --   -0.20201
 Alpha virt. eigenvalues --   -0.07418  -0.06929  -0.06785  -0.06054  -0.05913
 Alpha virt. eigenvalues --   -0.05574  -0.04610  -0.03909  -0.03786  -0.03263
 Alpha virt. eigenvalues --   -0.02697  -0.02092  -0.01097   0.04673   0.05785

 Mulliken charges:
               1
     1  Bi   0.113269
     2  Bi   0.029817
     3  Ge  -0.042744
     4  Ge  -0.035097
     5  Ge  -0.137547
     6  Bi   0.024648
     7  Bi  -0.017674
     8  Sn  -0.009805
     9  Sn   0.075133
 Sum of Mulliken charges =   0.00000

 Dipole moment (field-independent basis, Debye):
    X=             -0.0779    Y=              1.2348    Z=             -1.5762  Tot=              2.0038
 Quadrupole moment (field-independent basis, Debye-Ang):
   XX=           -213.7791   YY=           -219.6384   ZZ=           -221.6249
   XY=             -0.6560   XZ=              1.2667   YZ=              0.5204

  Exact polarizability: 374.335   3.941 378.217   3.366  11.964 380.443
 Approx polarizability:1149.242  10.2061153.570  33.061  16.8091201.503

                      1                      2                      3
                      A                      A                      A
 Frequencies --     41.1034                65.9827                76.4708
 Red. masses --    171.1458               137.4623               132.5037
 Frc consts  --      0.1704                 0.3526                 0.4565
 IR Inten    --      0.0379                 0.0476                 0.0541

                      4                      5                      6
                      A                      A                      A
 Frequencies --     85.8744                88.2798                94.1219
 Red. masses --    155.3086               140.5734               143.0656
 Frc consts  --      0.6748                 0.6455                 0.7467
 IR Inten    --      0.0057                 0.1238                 0.0422

                      7                      8                      9
                      A                      A                      A
 Frequencies --    103.2402               106.4407               109.1653
 Red. masses --    131.6584               113.7724               132.1898
 Frc consts  --      0.8268                 0.7595                 0.9281
 IR Inten    --      0.0617                 0.0681                 0.1435

                     10                     11                     12
                      A                      A                      A
 Frequencies --    110.3525               120.5319               121.3851
 Red. masses --    143.3659               119.6694                99.0489
 Frc consts  --      1.0286                 1.0243                 0.8599
 IR Inten    --      0.0249                 0.1478                 0.0977

                     13                     14                     15
                      A                      A                      A
 Frequencies --    130.8000               136.5347               141.0698
 Red. masses --    113.6464               119.5201               116.1482
 Frc consts  --      1.1456                 1.3127                 1.3619
 IR Inten    --      0.6607                 0.1048                 0.9662

                     16                     17                     18
                      A                      A                      A
 Frequencies --    150.0121               161.2691               166.4332
 Red. masses --    106.9244                85.3750                82.6063
 Frc consts  --      1.4177                 1.3082                 1.3482
 IR Inten    --      0.0516                 0.5041                 0.4006

                     19                     20                     21
                      A                      A                      A
 Frequencies --    172.3170               189.6753               216.6587
 Red. masses --     87.8518                76.9334                75.1775
 Frc consts  --      1.5369                 1.6307                 2.0792
 IR Inten    --      0.0587                 0.0478                 0.9876

 - Thermochemistry -
 -------------------
 Temperature   298.150 Kelvin.  Pressure   1.00000 Atm.
 Atom     1 has atomic number 83 and mass 208.98040

 Molecular mass:  1293.48874 amu.
 Principal axes and moments of inertia in atomic units:
                           1         2         3
     Eigenvalues --  ******************************
           X            0.99995   0.00483   0.00827
           Y           -0.00516   0.99920   0.03965
           Z           -0.00807  -0.03969   0.99918
 This molecule is an asymmetric top.
 Rotational symmetry number  1.
 Warning -- assumption of classical behavior for rotation
           may cause significant error
 Rotational temperatures (Kelvin)      0.00508     0.00448     0.00416
 Rotational constants (GHZ):           0.10582     0.09333     0.08677
 Zero-point vibrational energy      15478.0 (Joules/Mol)
                                    3.69933 (Kcal/Mol)
 Warning -- explicit consideration of  21 degrees of freedom as
           vibrations may cause significant error
 Vibrational temperatures:     59.14    94.93   110.02   123.55   127.01
          (Kelvin)            135.42   148.54   153.14   157.06   158.77
                              173.42   174.65   188.19   196.44   202.97
                              215.83   232.03   239.46   247.93   272.90
                              311.72

 Zero-point correction=                           0.005895 (Hartree/Particle)
 Thermal correction to Energy=                    0.023306
 Thermal correction to Enthalpy=                  0.024250
 Thermal correction to Gibbs Free Energy=        -0.047648
 Sum of electronic and zero-point Energies=          -7517.823016
 Sum of electronic and thermal Energies=             -7517.805605
 Sum of electronic and thermal Enthalpies=           -7517.804661
 Sum of electronic and thermal Free Energies=        -7517.876559

                     E (Thermal)             CV                S
                      KCal/Mol        Cal/Mol-Kelvin    Cal/Mol-Kelvin
 Total                   14.625             46.359            151.323
 Electronic               0.000              0.000              0.000
 Translational            0.889              2.981             47.349
 Rotational               0.889              2.981             37.170
 Vibrational             12.847             40.397             66.804
 Vibration     1          0.594              1.981              5.205
 Vibration     2          0.597              1.971              4.270
 Vibration     3          0.599              1.965              3.979
 Vibration     4          0.601              1.959              3.752
 Vibration     5          0.601              1.957              3.698
 Vibration     6          0.603              1.953              3.573
 Vibration     7          0.605              1.947              3.392
 Vibration     8          0.605              1.944              3.333
 Vibration     9          0.606              1.942              3.284
 Vibration    10          0.606              1.941              3.263
 Vibration    11          0.609              1.932              3.092
 Vibration    12          0.609              1.931              3.078
 Vibration    13          0.612              1.923              2.934
 Vibration    14          0.614              1.917              2.852
 Vibration    15          0.615              1.912              2.789
 Vibration    16          0.618              1.903              2.672
 Vibration    17          0.622              1.890              2.535
 Vibration    18          0.624              1.884              2.475
 Vibration    19          0.626              1.877              2.410
 Vibration    20          0.633              1.854              2.231
 Vibration    21          0.645              1.816              1.987

 Normal termination of Gaussian 09 at Tue Mar  6 16:55:52 2018.
