 Gaussian 09, Revision D.01,
 Gaussian 09:  ES64L-G09RevD.01 24-Apr-2013

 ----------------------------------------------------------------------
 #p PBE1PBE/Def2TZVP scf=(maxcycle=768) opt=(cartesian,maxcycle=512) fr
 eq
 ----------------------------------------------------------------------

 ---------------------
 01Final_coords.xyz_33
 ---------------------
 Symbolic Z-matrix:
 Charge =  0 Multiplicity = 1

 SCF Done:  E(RPBE1PBE) =  -7517.81462954     A.U. after   18 cycles
 SCF Done:  E(RPBE1PBE) =  -7517.82101253     A.U. after   13 cycles
 SCF Done:  E(RPBE1PBE) =  -7517.82267402     A.U. after   12 cycles
 SCF Done:  E(RPBE1PBE) =  -7517.82281575     A.U. after   11 cycles
 SCF Done:  E(RPBE1PBE) =  -7517.82290515     A.U. after   11 cycles
 SCF Done:  E(RPBE1PBE) =  -7517.82294035     A.U. after   10 cycles
 SCF Done:  E(RPBE1PBE) =  -7517.82294941     A.U. after    9 cycles
 SCF Done:  E(RPBE1PBE) =  -7517.82295223     A.U. after    9 cycles
 Optimization completed.
    -- Stationary point found.
 Normal termination of Gaussian 09 at Tue Mar  6 14:02:19 2018.

 ----------------------------------------------------------------------
 #P Geom=AllCheck Guess=TCheck SCRF=Check GenChk RPBE1PBE/def2TZVP Freq
 ----------------------------------------------------------------------

 Structure from the checkpoint file:  "Isomer_33.chk"
 ---------------------
 01Final_coords.xyz_33
 ---------------------
 Charge =  0 Multiplicity = 1

                         Standard orientation:
 ---------------------------------------------------------------------
 Center     Atomic      Atomic             Coordinates (Angstroms)
 Number     Number       Type             X           Y           Z
 ---------------------------------------------------------------------
      1         32           0        0.530509    2.104252    1.443814
      2         83           0       -1.966085   -0.391839   -1.002424
      3         83           0        2.488454    0.549972    0.159358
      4         32           0       -1.475849    0.371710    2.049733
      5         32           0        0.998939   -0.256625    2.485909
      6         50           0       -1.887346    2.368472    0.103499
      7         83           0        0.877389   -1.345910   -1.539266
      8         83           0       -0.543437   -2.140656    1.017378
      9         50           0        0.431551    1.736351   -1.664527
 ---------------------------------------------------------------------

 SCF Done:  E(RPBE1PBE) =  -7517.82295223     A.U. after    1 cycles

 The electronic state is 1-A.
 Alpha  occ. eigenvalues -- -399.09295-399.08771-399.08453 -49.90929 -49.90428
 Alpha  occ. eigenvalues --  -49.90111 -44.39045 -44.38954 -44.38937 -44.38515
 Alpha  occ. eigenvalues --  -44.38467 -44.38448 -44.38190 -44.38157 -44.38129
 Alpha  occ. eigenvalues --   -6.27480  -6.26988  -6.26667  -6.02799  -6.02576
 Alpha  occ. eigenvalues --   -6.01939  -6.01377  -5.13779  -5.13025  -4.43050
 Alpha  occ. eigenvalues --   -4.42782  -4.42699  -4.42478  -4.42344  -4.42246
 Alpha  occ. eigenvalues --   -4.42143  -4.42009  -4.41939  -3.75089  -3.74996
 Alpha  occ. eigenvalues --   -3.74856  -3.74738  -3.74728  -3.74560  -3.74279
 Alpha  occ. eigenvalues --   -3.74140  -3.73829  -3.73732  -3.73479  -3.73347
 Alpha  occ. eigenvalues --   -3.47090  -3.46874  -3.46725  -3.46272  -3.46181
 Alpha  occ. eigenvalues --   -3.45986  -1.22523  -1.22444  -1.22381  -1.22238
 Alpha  occ. eigenvalues --   -1.22194  -1.22002  -1.21931  -1.21819  -1.21785
 Alpha  occ. eigenvalues --   -1.21709  -1.21584  -1.21561  -1.21398  -1.21361
 Alpha  occ. eigenvalues --   -1.21329  -1.09264  -1.09111  -1.08797  -1.08736
 Alpha  occ. eigenvalues --   -1.08547  -1.08473  -1.08423  -1.08313  -1.08228
 Alpha  occ. eigenvalues --   -1.08126  -1.07828  -1.07719  -1.07517  -1.07498
 Alpha  occ. eigenvalues --   -1.07409  -1.07386  -1.07248  -1.07082  -1.07003
 Alpha  occ. eigenvalues --   -1.06923  -1.03330  -1.03239  -1.03120  -1.03100
 Alpha  occ. eigenvalues --   -1.02941  -1.02502  -1.02458  -1.02363  -1.02204
 Alpha  occ. eigenvalues --   -1.02159  -0.68447  -0.62269  -0.59798  -0.58587
 Alpha  occ. eigenvalues --   -0.52975  -0.47930  -0.43893  -0.42211  -0.39454
 Alpha  occ. eigenvalues --   -0.30089  -0.28160  -0.27210  -0.26008  -0.25622
 Alpha  occ. eigenvalues --   -0.24930  -0.23425  -0.22976  -0.21791  -0.21165
 Alpha  occ. eigenvalues --   -0.20304
 Alpha virt. eigenvalues --   -0.07666  -0.07213  -0.07029  -0.06609  -0.06058
 Alpha virt. eigenvalues --   -0.05188  -0.04906  -0.04430  -0.03986  -0.02159
 Alpha virt. eigenvalues --   -0.01984  -0.01498  -0.01294   0.05140   0.05797

 Mulliken charges:
               1
     1  Ge  -0.036527
     2  Bi   0.095535
     3  Bi   0.031037
     4  Ge  -0.039314
     5  Ge  -0.106089
     6  Sn  -0.044572
     7  Bi   0.011061
     8  Bi   0.046308
     9  Sn   0.042562
 Sum of Mulliken charges =   0.00000

 Dipole moment (field-independent basis, Debye):
    X=              0.0115    Y=             -1.4927    Z=             -2.1327  Tot=              2.6032
 Quadrupole moment (field-independent basis, Debye-Ang):
   XX=           -215.4458   YY=           -216.3016   ZZ=           -223.1120
   XY=             -1.2348   XZ=              0.1089   YZ=             -0.6427

  Exact polarizability: 379.165 -10.373 387.307  -1.604  -5.011 368.191
 Approx polarizability:1178.141 -54.7691208.051   6.776 -11.9671159.288

                      1                      2                      3
                      A                      A                      A
 Frequencies --     38.6318                58.4837                73.2694
 Red. masses --    153.5690               123.3038               158.1538
 Frc consts  --      0.1350                 0.2485                 0.5002
 IR Inten    --      0.0308                 0.0176                 0.0620

                      4                      5                      6
                      A                      A                      A
 Frequencies --     85.6996                89.0302                95.4004
 Red. masses --    145.3241               128.9630               176.0017
 Frc consts  --      0.6288                 0.6023                 0.9438
 IR Inten    --      0.0796                 0.1778                 0.0381

                      7                      8                      9
                      A                      A                      A
 Frequencies --     99.3898               106.2306               108.2666
 Red. masses --    160.7003               131.4833               141.4967
 Frc consts  --      0.9353                 0.8742                 0.9772
 IR Inten    --      0.0563                 0.1263                 0.0922

                     10                     11                     12
                      A                      A                      A
 Frequencies --    113.4191               117.5696               130.8080
 Red. masses --    126.1756               109.5425               106.9800
 Frc consts  --      0.9563                 0.8921                 1.0785
 IR Inten    --      0.0543                 0.3449                 0.0114

                     13                     14                     15
                      A                      A                      A
 Frequencies --    136.3657               139.2653               144.2765
 Red. masses --    112.6107               105.7254                88.3245
 Frc consts  --      1.2338                 1.2081                 1.0832
 IR Inten    --      0.1434                 0.8481                 0.0493

                     16                     17                     18
                      A                      A                      A
 Frequencies --    145.5995               147.5804               152.7595
 Red. masses --    125.3346                79.1684                99.0439
 Frc consts  --      1.5655                 1.0159                 1.3617
 IR Inten    --      0.4174                 0.1088                 0.1127

                     19                     20                     21
                      A                      A                      A
 Frequencies --    190.7314               198.7813               213.2139
 Red. masses --     80.5886                79.5703                75.7685
 Frc consts  --      1.7273                 1.8525                 2.0294
 IR Inten    --      0.8123                 0.6722                 0.3144

 - Thermochemistry -
 -------------------
 Temperature   298.150 Kelvin.  Pressure   1.00000 Atm.
 Atom     1 has atomic number 32 and mass  73.92118

 Molecular mass:  1293.48874 amu.
 Principal axes and moments of inertia in atomic units:
                           1         2         3
     Eigenvalues --  ******************************
           X            0.99300  -0.11793  -0.00720
           Y            0.11795   0.99302   0.00179
           Z            0.00694  -0.00263   0.99997
 This molecule is an asymmetric top.
 Rotational symmetry number  1.
 Warning -- assumption of classical behavior for rotation
           may cause significant error
 Rotational temperatures (Kelvin)      0.00489     0.00466     0.00417
 Rotational constants (GHZ):           0.10187     0.09717     0.08697
 Zero-point vibrational energy      15460.4 (Joules/Mol)
                                    3.69512 (Kcal/Mol)
 Warning -- explicit consideration of  21 degrees of freedom as
           vibrations may cause significant error
 Vibrational temperatures:     55.58    84.14   105.42   123.30   128.09
          (Kelvin)            137.26   143.00   152.84   155.77   163.18
                              169.16   188.20   196.20   200.37   207.58
                              209.48   212.34   219.79   274.42   286.00
                              306.77

 Zero-point correction=                           0.005889 (Hartree/Particle)
 Thermal correction to Energy=                    0.023310
 Thermal correction to Enthalpy=                  0.024254
 Thermal correction to Gibbs Free Energy=        -0.047799
 Sum of electronic and zero-point Energies=          -7517.817064
 Sum of electronic and thermal Energies=             -7517.799642
 Sum of electronic and thermal Enthalpies=           -7517.798698
 Sum of electronic and thermal Free Energies=        -7517.870751

                     E (Thermal)             CV                S
                      KCal/Mol        Cal/Mol-Kelvin    Cal/Mol-Kelvin
 Total                   14.627             46.352            151.649
 Electronic               0.000              0.000              0.000
 Translational            0.889              2.981             47.349
 Rotational               0.889              2.981             37.166
 Vibrational             12.850             40.390             67.134
 Vibration     1          0.594              1.981              5.328
 Vibration     2          0.596              1.974              4.508
 Vibration     3          0.599              1.967              4.064
 Vibration     4          0.601              1.959              3.756
 Vibration     5          0.602              1.957              3.681
 Vibration     6          0.603              1.952              3.546
 Vibration     7          0.604              1.950              3.466
 Vibration     8          0.605              1.944              3.337
 Vibration     9          0.606              1.943              3.300
 Vibration    10          0.607              1.938              3.210
 Vibration    11          0.608              1.935              3.140
 Vibration    12          0.612              1.923              2.934
 Vibration    13          0.614              1.917              2.854
 Vibration    14          0.615              1.914              2.814
 Vibration    15          0.616              1.909              2.746
 Vibration    16          0.617              1.907              2.729
 Vibration    17          0.617              1.905              2.703
 Vibration    18          0.619              1.900              2.638
 Vibration    19          0.634              1.853              2.221
 Vibration    20          0.637              1.842              2.144
 Vibration    21          0.644              1.821              2.016

 Normal termination of Gaussian 09 at Tue Mar  6 15:14:10 2018.
