 Gaussian 09, Revision D.01,
 Gaussian 09:  ES64L-G09RevD.01 24-Apr-2013

 ----------------------------------------------------------------------
 #p PBE1PBE/Def2TZVP scf=(maxcycle=768) opt=(cartesian,maxcycle=512) fr
 eq
 ----------------------------------------------------------------------

 ---------------------
 01Final_coords.xyz_20
 ---------------------
 Symbolic Z-matrix:
 Charge =  0 Multiplicity = 1

 SCF Done:  E(RPBE1PBE) =  -7517.81763123     A.U. after   18 cycles
 SCF Done:  E(RPBE1PBE) =  -7517.82398441     A.U. after   13 cycles
 SCF Done:  E(RPBE1PBE) =  -7517.82562781     A.U. after   12 cycles
 SCF Done:  E(RPBE1PBE) =  -7517.82574894     A.U. after   11 cycles
 SCF Done:  E(RPBE1PBE) =  -7517.82581569     A.U. after   11 cycles
 SCF Done:  E(RPBE1PBE) =  -7517.82583972     A.U. after   11 cycles
 SCF Done:  E(RPBE1PBE) =  -7517.82584369     A.U. after    9 cycles
 SCF Done:  E(RPBE1PBE) =  -7517.82584424     A.U. after    9 cycles
 SCF Done:  E(RPBE1PBE) =  -7517.82584628     A.U. after    9 cycles
 SCF Done:  E(RPBE1PBE) =  -7517.82584678     A.U. after    9 cycles
 SCF Done:  E(RPBE1PBE) =  -7517.82584713     A.U. after    9 cycles
 SCF Done:  E(RPBE1PBE) =  -7517.82584713     A.U. after    9 cycles
 Optimization completed.
    -- Stationary point found.
 Normal termination of Gaussian 09 at Tue Mar  6 14:53:57 2018.

 ----------------------------------------------------------------------
 #P Geom=AllCheck Guess=TCheck SCRF=Check GenChk RPBE1PBE/def2TZVP Freq
 ----------------------------------------------------------------------

 Structure from the checkpoint file:  "Isomer_20.chk"
 ---------------------
 01Final_coords.xyz_20
 ---------------------
 Charge =  0 Multiplicity = 1

                         Standard orientation:
 ---------------------------------------------------------------------
 Center     Atomic      Atomic             Coordinates (Angstroms)
 Number     Number       Type             X           Y           Z
 ---------------------------------------------------------------------
      1         50           0        1.120771    2.326362    0.933420
      2         83           0       -2.079860   -1.073085    0.089719
      3         32           0        1.540526   -0.199456    2.108378
      4         83           0       -0.104771   -0.386418   -2.138530
      5         32           0       -0.939163    0.938725    2.198537
      6         50           0        0.860376   -2.400426    0.088105
      7         32           0       -0.585163   -1.649689    2.380065
      8         83           0       -1.452480    1.808381   -0.554640
      9         83           0        2.437403    0.046744   -0.590038
 ---------------------------------------------------------------------

 SCF Done:  E(RPBE1PBE) =  -7517.82584713     A.U. after    1 cycles

 The electronic state is 1-A.
 Alpha  occ. eigenvalues -- -399.09276-399.08741-399.08733 -49.90907 -49.90419
 Alpha  occ. eigenvalues --  -49.90397 -44.39022 -44.38933 -44.38916 -44.38494
 Alpha  occ. eigenvalues --  -44.38483 -44.38468 -44.38439 -44.38426 -44.38414
 Alpha  occ. eigenvalues --   -6.27454  -6.26982  -6.26954  -6.03043  -6.02667
 Alpha  occ. eigenvalues --   -6.01866  -6.01278  -5.13920  -5.12645  -4.43019
 Alpha  occ. eigenvalues --   -4.42754  -4.42672  -4.42452  -4.42444  -4.42362
 Alpha  occ. eigenvalues --   -4.42313  -4.42225  -4.42205  -3.75335  -3.75247
 Alpha  occ. eigenvalues --   -3.74986  -3.74940  -3.74815  -3.74660  -3.74189
 Alpha  occ. eigenvalues --   -3.74076  -3.73748  -3.73629  -3.73384  -3.73237
 Alpha  occ. eigenvalues --   -3.47241  -3.47028  -3.46851  -3.45905  -3.45754
 Alpha  occ. eigenvalues --   -3.45642  -1.22503  -1.22416  -1.22349  -1.22231
 Alpha  occ. eigenvalues --   -1.22177  -1.22060  -1.21974  -1.21923  -1.21850
 Alpha  occ. eigenvalues --   -1.21822  -1.21779  -1.21739  -1.21652  -1.21585
 Alpha  occ. eigenvalues --   -1.21483  -1.09429  -1.09309  -1.08944  -1.08857
 Alpha  occ. eigenvalues --   -1.08741  -1.08714  -1.08565  -1.08412  -1.08331
 Alpha  occ. eigenvalues --   -1.08249  -1.07760  -1.07658  -1.07465  -1.07430
 Alpha  occ. eigenvalues --   -1.07367  -1.07278  -1.07143  -1.07016  -1.06919
 Alpha  occ. eigenvalues --   -1.06832  -1.03438  -1.03395  -1.03238  -1.03109
 Alpha  occ. eigenvalues --   -1.03049  -1.02099  -1.02080  -1.02066  -1.01902
 Alpha  occ. eigenvalues --   -1.01821  -0.68471  -0.62158  -0.59744  -0.58696
 Alpha  occ. eigenvalues --   -0.53452  -0.47847  -0.44120  -0.41862  -0.39559
 Alpha  occ. eigenvalues --   -0.30008  -0.28185  -0.27366  -0.26240  -0.25590
 Alpha  occ. eigenvalues --   -0.25055  -0.23498  -0.22556  -0.21870  -0.21304
 Alpha  occ. eigenvalues --   -0.20448
 Alpha virt. eigenvalues --   -0.07638  -0.07280  -0.07095  -0.06813  -0.05926
 Alpha virt. eigenvalues --   -0.05249  -0.04730  -0.04525  -0.03593  -0.02672
 Alpha virt. eigenvalues --   -0.02163  -0.01356  -0.01155   0.05012   0.05634

 Mulliken charges:
               1
     1  Sn   0.009111
     2  Bi   0.131906
     3  Ge  -0.046926
     4  Bi   0.019450
     5  Ge  -0.055188
     6  Sn   0.065560
     7  Ge  -0.140671
     8  Bi   0.014148
     9  Bi   0.002610
 Sum of Mulliken charges =   0.00000

 Dipole moment (field-independent basis, Debye):
    X=             -0.7172    Y=             -0.1393    Z=             -2.6860  Tot=              2.7835
 Quadrupole moment (field-independent basis, Debye-Ang):
   XX=           -216.1923   YY=           -218.1406   ZZ=           -221.4745
   XY=              0.7226   XZ=             -0.3971   YZ=             -0.8615

  Exact polarizability: 375.707   1.674 392.086   1.409   1.431 365.812
 Approx polarizability:1147.605  14.0591209.397  -8.474 -26.2261158.719

                      1                      2                      3
                      A                      A                      A
 Frequencies --     37.8534                63.4119                76.2902
 Red. masses --    162.5808               126.2790               158.9112
 Frc consts  --      0.1373                 0.2992                 0.5449
 IR Inten    --      0.0243                 0.0704                 0.0319

                      4                      5                      6
                      A                      A                      A
 Frequencies --     84.5240                90.5322                97.0280
 Red. masses --    143.5313               138.6086               146.4231
 Frc consts  --      0.6042                 0.6693                 0.8122
 IR Inten    --      0.0673                 0.0608                 0.0118

                      7                      8                      9
                      A                      A                      A
 Frequencies --    100.9431               104.9107               109.0542
 Red. masses --    146.0145               122.0312               117.1169
 Frc consts  --      0.8766                 0.7913                 0.8206
 IR Inten    --      0.0904                 0.0579                 0.0657

                     10                     11                     12
                      A                      A                      A
 Frequencies --    111.0610               115.7445               123.6810
 Red. masses --    151.2768               122.6083                97.7035
 Frc consts  --      1.0994                 0.9678                 0.8806
 IR Inten    --      0.0335                 0.1434                 0.3978

                     13                     14                     15
                      A                      A                      A
 Frequencies --    132.8786               134.6985               137.9696
 Red. masses --     99.2901               145.4013               119.1468
 Frc consts  --      1.0329                 1.5543                 1.3363
 IR Inten    --      0.3809                 0.0929                 1.1335

                     16                     17                     18
                      A                      A                      A
 Frequencies --    148.6585               159.6700               170.7125
 Red. masses --    100.5646                86.6585                83.7002
 Frc consts  --      1.3094                 1.3017                 1.4372
 IR Inten    --      0.0136                 0.1786                 0.3267

                     19                     20                     21
                      A                      A                      A
 Frequencies --    180.3126               185.8042               218.9490
 Red. masses --     83.7299                78.3401                74.8457
 Frc consts  --      1.6039                 1.5935                 2.1140
 IR Inten    --      0.4649                 0.0469                 0.9859

 - Thermochemistry -
 -------------------
 Temperature   298.150 Kelvin.  Pressure   1.00000 Atm.
 Atom     1 has atomic number 50 and mass 117.90180

 Molecular mass:  1293.48874 amu.
 Principal axes and moments of inertia in atomic units:
                           1         2         3
     Eigenvalues --  ******************************
           X            0.99993   0.00503   0.01042
           Y           -0.00504   0.99999   0.00098
           Z           -0.01041  -0.00103   0.99995
 This molecule is an asymmetric top.
 Rotational symmetry number  1.
 Warning -- assumption of classical behavior for rotation
           may cause significant error
 Rotational temperatures (Kelvin)      0.00501     0.00450     0.00431
 Rotational constants (GHZ):           0.10436     0.09375     0.08973
 Zero-point vibrational energy      15459.9 (Joules/Mol)
                                    3.69500 (Kcal/Mol)
 Warning -- explicit consideration of  21 degrees of freedom as
           vibrations may cause significant error
 Vibrational temperatures:     54.46    91.24   109.76   121.61   130.26
          (Kelvin)            139.60   145.23   150.94   156.90   159.79
                              166.53   177.95   191.18   193.80   198.51
                              213.89   229.73   245.62   259.43   267.33
                              315.02

 Zero-point correction=                           0.005888 (Hartree/Particle)
 Thermal correction to Energy=                    0.023308
 Thermal correction to Enthalpy=                  0.024252
 Thermal correction to Gibbs Free Energy=        -0.047746
 Sum of electronic and zero-point Energies=          -7517.819959
 Sum of electronic and thermal Energies=             -7517.802539
 Sum of electronic and thermal Enthalpies=           -7517.801595
 Sum of electronic and thermal Free Energies=        -7517.873593

                     E (Thermal)             CV                S
                      KCal/Mol        Cal/Mol-Kelvin    Cal/Mol-Kelvin
 Total                   14.626             46.356            151.532
 Electronic               0.000              0.000              0.000
 Translational            0.889              2.981             47.349
 Rotational               0.889              2.981             37.147
 Vibrational             12.848             40.394             67.037
 Vibration     1          0.594              1.982              5.368
 Vibration     2          0.597              1.972              4.348
 Vibration     3          0.599              1.965              3.984
 Vibration     4          0.601              1.960              3.783
 Vibration     5          0.602              1.956              3.649
 Vibration     6          0.603              1.951              3.513
 Vibration     7          0.604              1.948              3.436
 Vibration     8          0.605              1.945              3.361
 Vibration     9          0.606              1.942              3.286
 Vibration    10          0.607              1.940              3.250
 Vibration    11          0.608              1.936              3.170
 Vibration    12          0.610              1.929              3.042
 Vibration    13          0.613              1.920              2.904
 Vibration    14          0.613              1.919              2.878
 Vibration    15          0.614              1.915              2.832
 Vibration    16          0.618              1.904              2.689
 Vibration    17          0.622              1.892              2.554
 Vibration    18          0.626              1.879              2.428
 Vibration    19          0.629              1.866              2.325
 Vibration    20          0.632              1.859              2.269
 Vibration    21          0.647              1.812              1.968

 Optimization completed.
    -- Stationary point found.
 Normal termination of Gaussian 09 at Tue Mar  6 16:11:08 2018.
