 Gaussian 09, Revision D.01,
 Gaussian 09:  ES64L-G09RevD.01 24-Apr-2013

 ----------------------------------------------------------------------
 #p PBE1PBE/Def2TZVP scf=(maxcycle=768) opt=(cartesian,maxcycle=512) fr
 eq
 ----------------------------------------------------------------------

 ---------------------
 01Final_coords.xyz_38
 ---------------------
 Symbolic Z-matrix:
 Charge =  0 Multiplicity = 1

 SCF Done:  E(RPBE1PBE) =  -7517.80689401     A.U. after   16 cycles
 SCF Done:  E(RPBE1PBE) =  -7517.81198546     A.U. after   13 cycles
 SCF Done:  E(RPBE1PBE) =  -7517.81315447     A.U. after   12 cycles
 SCF Done:  E(RPBE1PBE) =  -7517.81329467     A.U. after   11 cycles
 SCF Done:  E(RPBE1PBE) =  -7517.81340441     A.U. after   11 cycles
 SCF Done:  E(RPBE1PBE) =  -7517.81342090     A.U. after   10 cycles
 SCF Done:  E(RPBE1PBE) =  -7517.81343176     A.U. after   10 cycles
 SCF Done:  E(RPBE1PBE) =  -7517.81343839     A.U. after   11 cycles
 SCF Done:  E(RPBE1PBE) =  -7517.81344173     A.U. after    9 cycles
 SCF Done:  E(RPBE1PBE) =  -7517.81340071     A.U. after   12 cycles
 SCF Done:  E(RPBE1PBE) =  -7517.81332721     A.U. after   12 cycles
 SCF Done:  E(RPBE1PBE) =  -7517.81344185     A.U. after    4 cycles
 SCF Done:  E(RPBE1PBE) =  -7517.81344878     A.U. after   11 cycles
 Optimization completed.
    -- Stationary point found.
 Normal termination of Gaussian 09 at Tue Mar  6 17:06:25 2018.

 ----------------------------------------------------------------------
 #P Geom=AllCheck Guess=TCheck SCRF=Check GenChk RPBE1PBE/def2TZVP Freq
 ----------------------------------------------------------------------

 Structure from the checkpoint file:  "Isomer_38.chk"
 ---------------------
 01Final_coords.xyz_38
 ---------------------
 Charge =  0 Multiplicity = 1

                         Standard orientation:
 ---------------------------------------------------------------------
 Center     Atomic      Atomic             Coordinates (Angstroms)
 Number     Number       Type             X           Y           Z
 ---------------------------------------------------------------------
      1         50           0       -0.424981    2.823477   -0.419745
      2         50           0        1.234810   -1.669085   -1.548860
      3         83           0       -2.262169    0.761787    0.557822
      4         83           0        1.885339   -0.974319    1.377850
      5         32           0        0.253805    1.287556    1.989465
      6         83           0        1.937215    1.135815   -0.760875
      7         83           0       -1.592691   -1.840743   -0.705728
      8         32           0       -0.611066    0.491689   -2.155625
      9         32           0       -0.824306   -1.203322    2.025458
 ---------------------------------------------------------------------

 SCF Done:  E(RPBE1PBE) =  -7517.81344878     A.U. after    1 cycles

 The electronic state is 1-A.
 Alpha  occ. eigenvalues -- -399.09886-399.09858-399.09156 -49.91473 -49.91449
 Alpha  occ. eigenvalues --  -49.90793 -44.39560 -44.39537 -44.39519 -44.39499
 Alpha  occ. eigenvalues --  -44.39491 -44.39476 -44.38863 -44.38841 -44.38821
 Alpha  occ. eigenvalues --   -6.27986  -6.27972  -6.27333  -6.02540  -6.02297
 Alpha  occ. eigenvalues --   -6.01157  -6.01107  -5.13572  -5.13255  -4.43448
 Alpha  occ. eigenvalues --   -4.43440  -4.43310  -4.43285  -4.43258  -4.43254
 Alpha  occ. eigenvalues --   -4.42776  -4.42689  -4.42613  -3.74802  -3.74715
 Alpha  occ. eigenvalues --   -3.74557  -3.74550  -3.74451  -3.74315  -3.73491
 Alpha  occ. eigenvalues --   -3.73445  -3.73356  -3.73299  -3.73045  -3.73000
 Alpha  occ. eigenvalues --   -3.46795  -3.46702  -3.46578  -3.46477  -3.46375
 Alpha  occ. eigenvalues --   -3.46272  -1.22889  -1.22878  -1.22863  -1.22853
 Alpha  occ. eigenvalues --   -1.22821  -1.22810  -1.22740  -1.22711  -1.22687
 Alpha  occ. eigenvalues --   -1.22686  -1.22238  -1.22214  -1.22180  -1.22060
 Alpha  occ. eigenvalues --   -1.22046  -1.08819  -1.08558  -1.08533  -1.08444
 Alpha  occ. eigenvalues --   -1.08308  -1.08301  -1.08219  -1.08194  -1.08048
 Alpha  occ. eigenvalues --   -1.07942  -1.07173  -1.07120  -1.07075  -1.07026
 Alpha  occ. eigenvalues --   -1.06924  -1.06872  -1.06747  -1.06692  -1.06662
 Alpha  occ. eigenvalues --   -1.06601  -1.03020  -1.02970  -1.02935  -1.02853
 Alpha  occ. eigenvalues --   -1.02771  -1.02701  -1.02662  -1.02576  -1.02470
 Alpha  occ. eigenvalues --   -1.02444  -0.67928  -0.63585  -0.59121  -0.58698
 Alpha  occ. eigenvalues --   -0.49212  -0.48148  -0.45079  -0.42915  -0.40151
 Alpha  occ. eigenvalues --   -0.29925  -0.27635  -0.26742  -0.26524  -0.25603
 Alpha  occ. eigenvalues --   -0.24459  -0.24154  -0.23088  -0.21737  -0.21103
 Alpha  occ. eigenvalues --   -0.19885
 Alpha virt. eigenvalues --   -0.07313  -0.07038  -0.06519  -0.06194  -0.05834
 Alpha virt. eigenvalues --   -0.05520  -0.04630  -0.04435  -0.04233  -0.03549
 Alpha virt. eigenvalues --   -0.03128  -0.01283  -0.00734   0.04426   0.05141

 Mulliken charges:
               1
     1  Sn  -0.037468
     2  Sn   0.002601
     3  Bi   0.144465
     4  Bi   0.023664
     5  Ge  -0.057478
     6  Bi   0.114863
     7  Bi   0.019485
     8  Ge  -0.099787
     9  Ge  -0.110344
 Sum of Mulliken charges =   0.00000

 Dipole moment (field-independent basis, Debye):
    X=              0.1060    Y=              0.1434    Z=             -0.3623  Tot=              0.4038
 Quadrupole moment (field-independent basis, Debye-Ang):
   XX=           -213.1512   YY=           -214.6561   ZZ=           -225.2860
   XY=             -1.0588   XZ=             -0.9540   YZ=             -0.4187

  Exact polarizability: 379.385  -7.967 397.643  -4.725   3.717 359.234
 Approx polarizability:1158.866 -26.0011269.917 -10.521   5.5671146.191

                      1                      2                      3
                      A                      A                      A
 Frequencies --     34.0837                37.5597                75.9769
 Red. masses --    135.1742               129.4477               168.2800
 Frc consts  --      0.0925                 0.1076                 0.5723
 IR Inten    --      0.1413                 0.1358                 0.0647

                      4                      5                      6
                      A                      A                      A
 Frequencies --     78.0449                84.6320                89.7656
 Red. masses --    134.1735               159.4534               172.2710
 Frc consts  --      0.4815                 0.6729                 0.8179
 IR Inten    --      0.0665                 0.0940                 0.0121

                      7                      8                      9
                      A                      A                      A
 Frequencies --     98.1189               100.8161               110.2745
 Red. masses --    110.1179               100.0635               131.3679
 Frc consts  --      0.6246                 0.5992                 0.9412
 IR Inten    --      0.0671                 0.1982                 0.0655

                     10                     11                     12
                      A                      A                      A
 Frequencies --    117.9364               124.6133               130.1805
 Red. masses --    135.6294               103.4720               102.3048
 Frc consts  --      1.1115                 0.9467                 1.0215
 IR Inten    --      0.0396                 0.4028                 0.3797

                     13                     14                     15
                      A                      A                      A
 Frequencies --    135.4126               141.0973               146.3649
 Red. masses --    105.4825               111.3376               107.9788
 Frc consts  --      1.1396                 1.3060                 1.3629
 IR Inten    --      0.2382                 0.2097                 0.0486

                     16                     17                     18
                      A                      A                      A
 Frequencies --    149.6842               155.1266               161.9669
 Red. masses --    107.3290                91.1608                87.2877
 Frc consts  --      1.4168                 1.2925                 1.3491
 IR Inten    --      0.1002                 0.1046                 0.4784

                     19                     20                     21
                      A                      A                      A
 Frequencies --    171.6795               179.3593               183.1080
 Red. masses --     93.3954                85.4545                82.7523
 Frc consts  --      1.6219                 1.6197                 1.6347
 IR Inten    --      1.3727                 0.1324                 0.6638

 - Thermochemistry -
 -------------------
 Temperature   298.150 Kelvin.  Pressure   1.00000 Atm.
 Atom     1 has atomic number 50 and mass 117.90180

 Molecular mass:  1293.48874 amu.
 Principal axes and moments of inertia in atomic units:
                           1         2         3
     Eigenvalues --  ******************************
           X            0.99945  -0.03213  -0.00875
           Y            0.03218   0.99947   0.00577
           Z            0.00855  -0.00605   0.99995
 This molecule is an asymmetric top.
 Rotational symmetry number  1.
 Warning -- assumption of classical behavior for rotation
           may cause significant error
 Rotational temperatures (Kelvin)      0.00511     0.00454     0.00390
 Rotational constants (GHZ):           0.10657     0.09463     0.08121
 Zero-point vibrational energy      14988.0 (Joules/Mol)
                                    3.58222 (Kcal/Mol)
 Warning -- explicit consideration of  21 degrees of freedom as
           vibrations may cause significant error
 Vibrational temperatures:     49.04    54.04   109.31   112.29   121.77
          (Kelvin)            129.15   141.17   145.05   158.66   169.68
                              179.29   187.30   194.83   203.01   210.59
                              215.36   223.19   233.03   247.01   258.06
                              263.45

 Zero-point correction=                           0.005709 (Hartree/Particle)
 Thermal correction to Energy=                    0.023270
 Thermal correction to Enthalpy=                  0.024214
 Thermal correction to Gibbs Free Energy=        -0.048688
 Sum of electronic and zero-point Energies=          -7517.807740
 Sum of electronic and thermal Energies=             -7517.790179
 Sum of electronic and thermal Enthalpies=           -7517.789234
 Sum of electronic and thermal Free Energies=        -7517.862137

                     E (Thermal)             CV                S
                      KCal/Mol        Cal/Mol-Kelvin    Cal/Mol-Kelvin
 Total                   14.602             46.431            153.436
 Electronic               0.000              0.000              0.000
 Translational            0.889              2.981             47.349
 Rotational               0.889              2.981             37.216
 Vibrational             12.825             40.469             68.872
 Vibration     1          0.594              1.983              5.576
 Vibration     2          0.594              1.982              5.384
 Vibration     3          0.599              1.965              3.992
 Vibration     4          0.599              1.964              3.939
 Vibration     5          0.601              1.960              3.780
 Vibration     6          0.602              1.956              3.665
 Vibration     7          0.604              1.950              3.491
 Vibration     8          0.604              1.948              3.438
 Vibration     9          0.606              1.941              3.264
 Vibration    10          0.608              1.934              3.134
 Vibration    11          0.610              1.928              3.028
 Vibration    12          0.612              1.923              2.943
 Vibration    13          0.613              1.918              2.868
 Vibration    14          0.615              1.912              2.789
 Vibration    15          0.617              1.907              2.719
 Vibration    16          0.618              1.903              2.676
 Vibration    17          0.620              1.897              2.608
 Vibration    18          0.622              1.889              2.527
 Vibration    19          0.626              1.877              2.417
 Vibration    20          0.629              1.868              2.335
 Vibration    21          0.631              1.863              2.296

 Normal termination of Gaussian 09 at Tue Mar  6 18:02:22 2018.
