 Gaussian 09, Revision D.01,
 Gaussian 09:  ES64L-G09RevD.01 24-Apr-2013

 ----------------------------------------------------------------------
 #p PBE1PBE/Def2TZVP scf=(maxcycle=768) opt=(cartesian,maxcycle=512) fr
 eq
 ----------------------------------------------------------------------

 ---------------------
 01Final_coords.xyz_49
 ---------------------
 Symbolic Z-matrix:
 Charge =  0 Multiplicity = 1

 SCF Done:  E(RPBE1PBE) =  -7517.80652567     A.U. after   17 cycles
 SCF Done:  E(RPBE1PBE) =  -7517.81206007     A.U. after   12 cycles
 SCF Done:  E(RPBE1PBE) =  -7517.81341064     A.U. after   12 cycles
 SCF Done:  E(RPBE1PBE) =  -7517.81358594     A.U. after   11 cycles
 SCF Done:  E(RPBE1PBE) =  -7517.81370506     A.U. after   11 cycles
 SCF Done:  E(RPBE1PBE) =  -7517.81372500     A.U. after   10 cycles
 SCF Done:  E(RPBE1PBE) =  -7517.81372911     A.U. after    9 cycles
 SCF Done:  E(RPBE1PBE) =  -7517.81373074     A.U. after    9 cycles
 Optimization completed.
    -- Stationary point found.
 Normal termination of Gaussian 09 at Thu Mar  8 08:24:49 2018.

 ----------------------------------------------------------------------
 #P Geom=AllCheck Guess=TCheck SCRF=Check GenChk RPBE1PBE/def2TZVP Freq
 ----------------------------------------------------------------------

 Structure from the checkpoint file:  "Isomer_49.chk"
 ---------------------
 01Final_coords.xyz_49
 ---------------------
 Charge =  0 Multiplicity = 1

                         Standard orientation:
 ---------------------------------------------------------------------
 Center     Atomic      Atomic             Coordinates (Angstroms)
 Number     Number       Type             X           Y           Z
 ---------------------------------------------------------------------
      1         83           0       -1.552521    1.568404   -0.685192
      2         50           0        2.466944   -0.000366    1.319756
      3         83           0       -1.553001   -1.567939   -0.685209
      4         32           0        0.166951   -1.380373    2.004355
      5         32           0        0.359811   -0.000045   -2.294518
      6         83           0        1.352213   -2.055711   -0.586473
      7         50           0       -2.246394    0.000320    1.805128
      8         32           0        0.167337    1.380332    2.004336
      9         83           0        1.352844    2.055307   -0.586473
 ---------------------------------------------------------------------

 SCF Done:  E(RPBE1PBE) =  -7517.81373074     A.U. after    1 cycles

 The electronic state is 1-A.
 Alpha  occ. eigenvalues -- -399.09625-399.09139-399.09138 -49.91245 -49.90772
 Alpha  occ. eigenvalues --  -49.90771 -44.39335 -44.39297 -44.39251 -44.38874
 Alpha  occ. eigenvalues --  -44.38874 -44.38807 -44.38807 -44.38782 -44.38782
 Alpha  occ. eigenvalues --   -6.27769  -6.27313  -6.27312  -6.02821  -6.02821
 Alpha  occ. eigenvalues --   -6.01255  -6.01255  -5.13449  -5.12892  -4.43253
 Alpha  occ. eigenvalues --   -4.43144  -4.42971  -4.42837  -4.42836  -4.42652
 Alpha  occ. eigenvalues --   -4.42651  -4.42536  -4.42533  -3.75077  -3.75069
 Alpha  occ. eigenvalues --   -3.74999  -3.74998  -3.74827  -3.74824  -3.73574
 Alpha  occ. eigenvalues --   -3.73574  -3.73452  -3.73452  -3.73162  -3.73162
 Alpha  occ. eigenvalues --   -3.46658  -3.46657  -3.46397  -3.46161  -3.46003
 Alpha  occ. eigenvalues --   -3.45885  -1.22731  -1.22723  -1.22539  -1.22501
 Alpha  occ. eigenvalues --   -1.22430  -1.22320  -1.22278  -1.22273  -1.22250
 Alpha  occ. eigenvalues --   -1.22237  -1.22083  -1.22060  -1.22058  -1.21960
 Alpha  occ. eigenvalues --   -1.21870  -1.09273  -1.08959  -1.08945  -1.08751
 Alpha  occ. eigenvalues --   -1.08719  -1.08670  -1.08580  -1.08512  -1.08404
 Alpha  occ. eigenvalues --   -1.08261  -1.07248  -1.07240  -1.07148  -1.07125
 Alpha  occ. eigenvalues --   -1.07019  -1.07002  -1.06871  -1.06850  -1.06805
 Alpha  occ. eigenvalues --   -1.06730  -1.02940  -1.02920  -1.02778  -1.02750
 Alpha  occ. eigenvalues --   -1.02649  -1.02345  -1.02345  -1.02331  -1.02153
 Alpha  occ. eigenvalues --   -1.02070  -0.68326  -0.63011  -0.59883  -0.55752
 Alpha  occ. eigenvalues --   -0.54764  -0.45575  -0.44815  -0.43640  -0.39322
 Alpha  occ. eigenvalues --   -0.29916  -0.28096  -0.27275  -0.25681  -0.25499
 Alpha  occ. eigenvalues --   -0.25123  -0.23797  -0.22588  -0.21952  -0.20988
 Alpha  occ. eigenvalues --   -0.20068
 Alpha virt. eigenvalues --   -0.07761  -0.07359  -0.06599  -0.06246  -0.05974
 Alpha virt. eigenvalues --   -0.05534  -0.05227  -0.04555  -0.03730  -0.02561
 Alpha virt. eigenvalues --   -0.02459  -0.01495  -0.00758   0.04800   0.05198

 Mulliken charges:
               1
     1  Bi   0.120714
     2  Sn   0.003502
     3  Bi   0.120715
     4  Ge  -0.062365
     5  Ge  -0.137179
     6  Bi   0.032934
     7  Sn  -0.048895
     8  Ge  -0.062363
     9  Bi   0.032937
 Sum of Mulliken charges =   0.00000

 Dipole moment (field-independent basis, Debye):
    X=             -0.8107    Y=              0.0001    Z=             -1.1339  Tot=              1.3939
 Quadrupole moment (field-independent basis, Debye-Ang):
   XX=           -211.6333   YY=           -217.1710   ZZ=           -224.5927
   XY=             -0.0006   XZ=             -0.9245   YZ=              0.0000

  Exact polarizability: 400.458  -0.004 369.622  -3.389   0.000 364.991
 Approx polarizability:1274.202  -0.0151141.940 -22.969   0.0011146.088

                      1                      2                      3
                      A                      A                      A
 Frequencies --     33.1621                42.1167                79.4952
 Red. masses --    136.2567               139.2284               152.6204
 Frc consts  --      0.0883                 0.1455                 0.5683
 IR Inten    --      0.0761                 0.0814                 0.0291

                      4                      5                      6
                      A                      A                      A
 Frequencies --     80.6678                82.9819                97.8999
 Red. masses --    179.9652               125.9368               111.7940
 Frc consts  --      0.6900                 0.5109                 0.6313
 IR Inten    --      0.0041                 0.4318                 0.0278

                      7                      8                      9
                      A                      A                      A
 Frequencies --    102.6427               103.8812               110.2181
 Red. masses --    125.1038               132.5870               133.5030
 Frc consts  --      0.7766                 0.8430                 0.9555
 IR Inten    --      0.0160                 0.2150                 0.1099

                     10                     11                     12
                      A                      A                      A
 Frequencies --    115.8971               120.9502               121.6035
 Red. masses --    108.9773               144.6755               118.0102
 Frc consts  --      0.8624                 1.2470                 1.0282
 IR Inten    --      0.3729                 0.0259                 0.0670

                     13                     14                     15
                      A                      A                      A
 Frequencies --    127.9122               140.1728               141.5668
 Red. masses --    121.6305               122.3610               106.2041
 Frc consts  --      1.1725                 1.4165                 1.2540
 IR Inten    --      0.2476                 0.4545                 0.0461

                     16                     17                     18
                      A                      A                      A
 Frequencies --    142.9709               164.7538               168.2047
 Red. masses --     79.6158                94.3196                82.2261
 Frc consts  --      0.9588                 1.5084                 1.3707
 IR Inten    --      0.1876                 0.0583                 0.1148

                     19                     20                     21
                      A                      A                      A
 Frequencies --    180.0151               182.1918               196.9832
 Red. masses --     84.2208                82.4589                86.6947
 Frc consts  --      1.6080                 1.6127                 1.9820
 IR Inten    --      0.7901                 0.1389                 2.0376

 - Thermochemistry -
 -------------------
 Temperature   298.150 Kelvin.  Pressure   1.00000 Atm.
 Atom     1 has atomic number 83 and mass 208.98040

 Molecular mass:  1293.48874 amu.
 Principal axes and moments of inertia in atomic units:
                           1         2         3
     Eigenvalues --  ******************************
           X            0.99998  -0.00041  -0.00610
           Y            0.00041   1.00000   0.00000
           Z            0.00610   0.00000   0.99998
 This molecule is an asymmetric top.
 Rotational symmetry number  1.
 Warning -- assumption of classical behavior for rotation
           may cause significant error
 Rotational temperatures (Kelvin)      0.00486     0.00484     0.00393
 Rotational constants (GHZ):           0.10134     0.10087     0.08186
 Zero-point vibrational energy      15170.4 (Joules/Mol)
                                    3.62581 (Kcal/Mol)
 Warning -- explicit consideration of  21 degrees of freedom as
           vibrations may cause significant error
 Vibrational temperatures:     47.71    60.60   114.38   116.06   119.39
          (Kelvin)            140.86   147.68   149.46   158.58   166.75
                              174.02   174.96   184.04   201.68   203.68
                              205.70   237.04   242.01   259.00   262.13
                              283.41

 Zero-point correction=                           0.005778 (Hartree/Particle)
 Thermal correction to Energy=                    0.023287
 Thermal correction to Enthalpy=                  0.024231
 Thermal correction to Gibbs Free Energy=        -0.048402
 Sum of electronic and zero-point Energies=          -7517.807953
 Sum of electronic and thermal Energies=             -7517.790444
 Sum of electronic and thermal Enthalpies=           -7517.789500
 Sum of electronic and thermal Free Energies=        -7517.862133

                     E (Thermal)             CV                S
                      KCal/Mol        Cal/Mol-Kelvin    Cal/Mol-Kelvin
 Total                   14.613             46.398            152.870
 Electronic               0.000              0.000              0.000
 Translational            0.889              2.981             47.349
 Rotational               0.889              2.981             37.194
 Vibrational             12.835             40.436             68.327
 Vibration     1          0.594              1.983              5.631
 Vibration     2          0.595              1.980              5.157
 Vibration     3          0.600              1.963              3.903
 Vibration     4          0.600              1.962              3.875
 Vibration     5          0.600              1.961              3.819
 Vibration     6          0.603              1.951              3.496
 Vibration     7          0.605              1.947              3.404
 Vibration     8          0.605              1.946              3.380
 Vibration     9          0.606              1.941              3.265
 Vibration    10          0.608              1.936              3.168
 Vibration    11          0.609              1.932              3.085
 Vibration    12          0.609              1.931              3.075
 Vibration    13          0.611              1.925              2.977
 Vibration    14          0.615              1.913              2.802
 Vibration    15          0.615              1.912              2.783
 Vibration    16          0.616              1.910              2.764
 Vibration    17          0.623              1.886              2.495
 Vibration    18          0.625              1.882              2.455
 Vibration    19          0.629              1.867              2.328
 Vibration    20          0.630              1.864              2.306
 Vibration    21          0.636              1.844              2.161

 Normal termination of Gaussian 09 at Thu Mar  8 09:19:38 2018.
