 Gaussian 09, Revision D.01,
 Gaussian 09:  ES64L-G09RevD.01 24-Apr-2013

 ----------------------------------------------------------------------
 #p PBE1PBE/Def2TZVP scf=(maxcycle=768) opt=(cartesian,maxcycle=512) fr
 eq
 ----------------------------------------------------------------------

 ---------------------
 01Final_coords.xyz_39
 ---------------------
 Symbolic Z-matrix:
 Charge =  0 Multiplicity = 1

 SCF Done:  E(RPBE1PBE) =  -7517.81204769     A.U. after   17 cycles
 SCF Done:  E(RPBE1PBE) =  -7517.81820619     A.U. after   13 cycles
 SCF Done:  E(RPBE1PBE) =  -7517.81973038     A.U. after   12 cycles
 SCF Done:  E(RPBE1PBE) =  -7517.81981873     A.U. after   11 cycles
 SCF Done:  E(RPBE1PBE) =  -7517.81986129     A.U. after   11 cycles
 SCF Done:  E(RPBE1PBE) =  -7517.81985737     A.U. after   11 cycles
 SCF Done:  E(RPBE1PBE) =  -7517.81986997     A.U. after    5 cycles
 SCF Done:  E(RPBE1PBE) =  -7517.81986968     A.U. after   11 cycles
 SCF Done:  E(RPBE1PBE) =  -7517.81987238     A.U. after    4 cycles
 SCF Done:  E(RPBE1PBE) =  -7517.81987521     A.U. after    9 cycles
 SCF Done:  E(RPBE1PBE) =  -7517.81987481     A.U. after   10 cycles
 SCF Done:  E(RPBE1PBE) =  -7517.81987556     A.U. after    1 cycles
 SCF Done:  E(RPBE1PBE) =  -7517.81987696     A.U. after    9 cycles
 Optimization completed.
    -- Stationary point found.
 Normal termination of Gaussian 09 at Tue Mar  6 16:56:57 2018.

 ----------------------------------------------------------------------
 #P Geom=AllCheck Guess=TCheck SCRF=Check GenChk RPBE1PBE/def2TZVP Freq
 ----------------------------------------------------------------------

 Structure from the checkpoint file:  "Isomer_39.chk"
 ---------------------
 01Final_coords.xyz_39
 ---------------------
 Charge =  0 Multiplicity = 1

                         Standard orientation:
 ---------------------------------------------------------------------
 Center     Atomic      Atomic             Coordinates (Angstroms)
 Number     Number       Type             X           Y           Z
 ---------------------------------------------------------------------
      1         50           0        0.899010    2.278232    0.976410
      2         83           0        1.380826   -0.623916    1.766981
      3         83           0        2.002047    0.144807   -1.154162
      4         32           0       -1.091412    0.661010    2.215260
      5         83           0        0.232722   -2.237025   -0.540331
      6         83           0       -2.345541   -0.916239    0.161844
      7         50           0       -1.911317    1.995044   -0.183228
      8         32           0       -0.913879   -0.106033   -2.207835
      9         32           0        0.292817    2.189497   -1.854569
 ---------------------------------------------------------------------

 SCF Done:  E(RPBE1PBE) =  -7517.81987696     A.U. after    1 cycles

 The electronic state is 1-A.
 Alpha  occ. eigenvalues -- -399.10085-399.08826-399.08297 -49.91683 -49.90512
 Alpha  occ. eigenvalues --  -49.89951 -44.39791 -44.39733 -44.39681 -44.38584
 Alpha  occ. eigenvalues --  -44.38566 -44.38519 -44.38024 -44.37993 -44.37979
 Alpha  occ. eigenvalues --   -6.28210  -6.27066  -6.26485  -6.03103  -6.02818
 Alpha  occ. eigenvalues --   -6.01907  -6.01441  -5.13227  -5.12947  -4.43743
 Alpha  occ. eigenvalues --   -4.43561  -4.43391  -4.42527  -4.42458  -4.42305
 Alpha  occ. eigenvalues --   -4.41939  -4.41822  -4.41777  -3.75391  -3.75303
 Alpha  occ. eigenvalues --   -3.75071  -3.75056  -3.74965  -3.74844  -3.74230
 Alpha  occ. eigenvalues --   -3.74109  -3.73801  -3.73790  -3.73546  -3.73412
 Alpha  occ. eigenvalues --   -3.46552  -3.46326  -3.46210  -3.46166  -3.46096
 Alpha  occ. eigenvalues --   -3.45912  -1.23210  -1.23166  -1.23020  -1.22933
 Alpha  occ. eigenvalues --   -1.22864  -1.22032  -1.21986  -1.21888  -1.21802
 Alpha  occ. eigenvalues --   -1.21773  -1.21395  -1.21372  -1.21353  -1.21238
 Alpha  occ. eigenvalues --   -1.21201  -1.09549  -1.09312  -1.09030  -1.08974
 Alpha  occ. eigenvalues --   -1.08849  -1.08782  -1.08684  -1.08580  -1.08481
 Alpha  occ. eigenvalues --   -1.08382  -1.07850  -1.07728  -1.07545  -1.07486
 Alpha  occ. eigenvalues --   -1.07436  -1.07426  -1.07292  -1.07165  -1.07064
 Alpha  occ. eigenvalues --   -1.06999  -1.02797  -1.02739  -1.02718  -1.02526
 Alpha  occ. eigenvalues --   -1.02497  -1.02429  -1.02407  -1.02181  -1.02155
 Alpha  occ. eigenvalues --   -1.01979  -0.68720  -0.62254  -0.59732  -0.58671
 Alpha  occ. eigenvalues --   -0.52324  -0.48580  -0.43800  -0.41439  -0.40377
 Alpha  occ. eigenvalues --   -0.30168  -0.28410  -0.26844  -0.26518  -0.25532
 Alpha  occ. eigenvalues --   -0.25082  -0.23458  -0.22364  -0.21912  -0.21515
 Alpha  occ. eigenvalues --   -0.20355
 Alpha virt. eigenvalues --   -0.08003  -0.07435  -0.06900  -0.06788  -0.05784
 Alpha virt. eigenvalues --   -0.05528  -0.05022  -0.04221  -0.03809  -0.02279
 Alpha virt. eigenvalues --   -0.01903  -0.01576  -0.01279   0.04568   0.05824

 Mulliken charges:
               1
     1  Sn   0.059863
     2  Bi   0.036770
     3  Bi   0.131933
     4  Ge  -0.172456
     5  Bi   0.027708
     6  Bi   0.050374
     7  Sn   0.079389
     8  Ge  -0.052117
     9  Ge  -0.161464
 Sum of Mulliken charges =   0.00000

 Dipole moment (field-independent basis, Debye):
    X=              1.1510    Y=             -1.9790    Z=             -0.0357  Tot=              2.2897
 Quadrupole moment (field-independent basis, Debye-Ang):
   XX=           -215.5576   YY=           -215.8014   ZZ=           -224.2287
   XY=             -0.1129   XZ=             -0.3531   YZ=             -0.3243

  Exact polarizability: 379.373  -3.267 388.865   2.748   0.240 360.702
 Approx polarizability:1149.031 -10.9561220.878  -5.305 -27.9561154.432

                      1                      2                      3
                      A                      A                      A
 Frequencies --     41.8103                67.3599                73.8022
 Red. masses --    161.6518               126.5758               143.9454
 Frc consts  --      0.1665                 0.3384                 0.4619
 IR Inten    --      0.0047                 0.0606                 0.0541

                      4                      5                      6
                      A                      A                      A
 Frequencies --     86.1800                86.3719                97.0747
 Red. masses --    159.1644               150.3023               162.1550
 Frc consts  --      0.6965                 0.6606                 0.9003
 IR Inten    --      0.1178                 0.0252                 0.0852

                      7                      8                      9
                      A                      A                      A
 Frequencies --     99.5099               104.1545               105.9340
 Red. masses --    157.8010               110.7457               108.4278
 Frc consts  --      0.9206                 0.7078                 0.7169
 IR Inten    --      0.2060                 0.0377                 0.0817

                     10                     11                     12
                      A                      A                      A
 Frequencies --    116.8376               121.0115               124.3204
 Red. masses --    125.5505               108.4086               119.6871
 Frc consts  --      1.0098                 0.9353                 1.0899
 IR Inten    --      0.0107                 0.1652                 0.2687

                     13                     14                     15
                      A                      A                      A
 Frequencies --    132.0468               136.4715               147.6661
 Red. masses --    152.6737               115.8529                92.6567
 Frc consts  --      1.5684                 1.2713                 1.1904
 IR Inten    --      0.2766                 0.4631                 0.1051

                     16                     17                     18
                      A                      A                      A
 Frequencies --    156.9108               163.7897               169.4106
 Red. masses --     91.0519                82.6394                86.7655
 Frc consts  --      1.3208                 1.3062                 1.4672
 IR Inten    --      0.5728                 0.5530                 0.9188

                     19                     20                     21
                      A                      A                      A
 Frequencies --    170.8279               179.4760               197.1045
 Red. masses --     83.0884                87.7047                77.8663
 Frc consts  --      1.4286                 1.6645                 1.7823
 IR Inten    --      0.3582                 0.2142                 0.5460

 - Thermochemistry -
 -------------------
 Temperature   298.150 Kelvin.  Pressure   1.00000 Atm.
 Atom     1 has atomic number 50 and mass 117.90180

 Molecular mass:  1293.48874 amu.
 Principal axes and moments of inertia in atomic units:
                           1         2         3
     Eigenvalues --  ******************************
           X            0.99883  -0.04821   0.00370
           Y            0.04821   0.99884  -0.00168
           Z           -0.00361   0.00186   0.99999
 This molecule is an asymmetric top.
 Rotational symmetry number  1.
 Warning -- assumption of classical behavior for rotation
           may cause significant error
 Rotational temperatures (Kelvin)      0.00499     0.00469     0.00414
 Rotational constants (GHZ):           0.10390     0.09774     0.08635
 Zero-point vibrational energy      15420.3 (Joules/Mol)
                                    3.68554 (Kcal/Mol)
 Warning -- explicit consideration of  21 degrees of freedom as
           vibrations may cause significant error
 Vibrational temperatures:     60.16    96.92   106.18   123.99   124.27
          (Kelvin)            139.67   143.17   149.85   152.42   168.10
                              174.11   178.87   189.99   196.35   212.46
                              225.76   235.66   243.74   245.78   258.23
                              283.59

 Zero-point correction=                           0.005873 (Hartree/Particle)
 Thermal correction to Energy=                    0.023296
 Thermal correction to Enthalpy=                  0.024240
 Thermal correction to Gibbs Free Energy=        -0.047656
 Sum of electronic and zero-point Energies=          -7517.814004
 Sum of electronic and thermal Energies=             -7517.796581
 Sum of electronic and thermal Enthalpies=           -7517.795637
 Sum of electronic and thermal Free Energies=        -7517.867533

                     E (Thermal)             CV                S
                      KCal/Mol        Cal/Mol-Kelvin    Cal/Mol-Kelvin
 Total                   14.619             46.378            151.319
 Electronic               0.000              0.000              0.000
 Translational            0.889              2.981             47.349
 Rotational               0.889              2.981             37.148
 Vibrational             12.841             40.416             66.822
 Vibration     1          0.594              1.980              5.171
 Vibration     2          0.598              1.970              4.229
 Vibration     3          0.599              1.966              4.049
 Vibration     4          0.601              1.959              3.745
 Vibration     5          0.601              1.959              3.741
 Vibration     6          0.603              1.951              3.512
 Vibration     7          0.604              1.949              3.464
 Vibration     8          0.605              1.946              3.375
 Vibration     9          0.605              1.944              3.342
 Vibration    10          0.608              1.935              3.152
 Vibration    11          0.609              1.932              3.084
 Vibration    12          0.610              1.929              3.032
 Vibration    13          0.612              1.921              2.916
 Vibration    14          0.614              1.917              2.853
 Vibration    15          0.617              1.905              2.702
 Vibration    16          0.621              1.895              2.587
 Vibration    17          0.623              1.887              2.506
 Vibration    18          0.625              1.880              2.442
 Vibration    19          0.626              1.878              2.426
 Vibration    20          0.629              1.868              2.334
 Vibration    21          0.636              1.844              2.160

 Normal termination of Gaussian 09 at Tue Mar  6 17:54:22 2018.
