 Gaussian 09, Revision D.01,
 Gaussian 09:  ES64L-G09RevD.01 24-Apr-2013

 ----------------------------------------------------------------------
 #p PBE1PBE/Def2TZVP scf=(maxcycle=768) opt=(cartesian,maxcycle=512) fr
 eq
 ----------------------------------------------------------------------

 ---------------------
 01Final_coords.xyz_40
 ---------------------
 Symbolic Z-matrix:
 Charge =  0 Multiplicity = 1

 SCF Done:  E(RPBE1PBE) =  -7517.80935513     A.U. after   16 cycles
 SCF Done:  E(RPBE1PBE) =  -7517.81495279     A.U. after   12 cycles
 SCF Done:  E(RPBE1PBE) =  -7517.81627885     A.U. after   12 cycles
 SCF Done:  E(RPBE1PBE) =  -7517.81643320     A.U. after   11 cycles
 SCF Done:  E(RPBE1PBE) =  -7517.81654272     A.U. after   11 cycles
 SCF Done:  E(RPBE1PBE) =  -7517.81656751     A.U. after   10 cycles
 SCF Done:  E(RPBE1PBE) =  -7517.81657355     A.U. after    9 cycles
 SCF Done:  E(RPBE1PBE) =  -7517.81657552     A.U. after   10 cycles
 SCF Done:  E(RPBE1PBE) =  -7517.81657947     A.U. after    9 cycles
 SCF Done:  E(RPBE1PBE) =  -7517.81658135     A.U. after    9 cycles
 SCF Done:  E(RPBE1PBE) =  -7517.81658270     A.U. after    9 cycles
 Optimization completed.
    -- Stationary point found.
 Normal termination of Gaussian 09 at Tue Mar  6 17:34:46 2018.

 ----------------------------------------------------------------------
 #P Geom=AllCheck Guess=TCheck SCRF=Check GenChk RPBE1PBE/def2TZVP Freq
 ----------------------------------------------------------------------

 Structure from the checkpoint file:  "Isomer_40.chk"
 ---------------------
 01Final_coords.xyz_40
 ---------------------
 Charge =  0 Multiplicity = 1

                         Standard orientation:
 ---------------------------------------------------------------------
 Center     Atomic      Atomic             Coordinates (Angstroms)
 Number     Number       Type             X           Y           Z
 ---------------------------------------------------------------------
      1         83           0        2.420418    0.866505    0.343071
      2         83           0       -2.104410    1.228998   -0.187613
      3         83           0       -1.375376   -1.850989    0.410420
      4         32           0       -1.444547    0.179381    2.408219
      5         83           0        1.423606   -1.787720   -0.621891
      6         50           0       -0.755858   -0.545162   -2.304623
      7         32           0        0.942108   -0.742592    2.126837
      8         32           0        0.139993    2.034699    1.488013
      9         50           0        0.383190    2.165133   -1.457160
 ---------------------------------------------------------------------

 SCF Done:  E(RPBE1PBE) =  -7517.81658270     A.U. after    1 cycles

 The electronic state is 1-A.
 Alpha  occ. eigenvalues -- -399.10073-399.09573-399.09194 -49.91678 -49.91199
 Alpha  occ. eigenvalues --  -49.90870 -44.39778 -44.39729 -44.39680 -44.39280
 Alpha  occ. eigenvalues --  -44.39246 -44.39221 -44.38945 -44.38934 -44.38863
 Alpha  occ. eigenvalues --   -6.28217  -6.27745  -6.27429  -6.02769  -6.02224
 Alpha  occ. eigenvalues --   -6.02104  -6.01700  -5.12830  -5.12744  -4.43723
 Alpha  occ. eigenvalues --   -4.43582  -4.43415  -4.43208  -4.43092  -4.43018
 Alpha  occ. eigenvalues --   -4.42890  -4.42858  -4.42624  -3.75052  -3.74879
 Alpha  occ. eigenvalues --   -3.74813  -3.74494  -3.74383  -3.74381  -3.74311
 Alpha  occ. eigenvalues --   -3.74237  -3.74050  -3.74035  -3.73780  -3.73701
 Alpha  occ. eigenvalues --   -3.46067  -3.46028  -3.45957  -3.45886  -3.45747
 Alpha  occ. eigenvalues --   -3.45735  -1.23208  -1.23167  -1.23038  -1.23012
 Alpha  occ. eigenvalues --   -1.22919  -1.22705  -1.22670  -1.22638  -1.22546
 Alpha  occ. eigenvalues --   -1.22501  -1.22383  -1.22352  -1.22165  -1.22077
 Alpha  occ. eigenvalues --   -1.22056  -1.09173  -1.08748  -1.08705  -1.08601
 Alpha  occ. eigenvalues --   -1.08498  -1.08399  -1.08158  -1.08077  -1.08061
 Alpha  occ. eigenvalues --   -1.08022  -1.07961  -1.07918  -1.07862  -1.07747
 Alpha  occ. eigenvalues --   -1.07603  -1.07590  -1.07500  -1.07335  -1.07279
 Alpha  occ. eigenvalues --   -1.07196  -1.02402  -1.02365  -1.02297  -1.02200
 Alpha  occ. eigenvalues --   -1.02177  -1.02067  -1.02062  -1.01890  -1.01870
 Alpha  occ. eigenvalues --   -1.01700  -0.68366  -0.63005  -0.61479  -0.56608
 Alpha  occ. eigenvalues --   -0.52888  -0.46971  -0.44447  -0.42196  -0.40403
 Alpha  occ. eigenvalues --   -0.30111  -0.28246  -0.27675  -0.25825  -0.25493
 Alpha  occ. eigenvalues --   -0.24865  -0.23845  -0.23254  -0.22484  -0.20863
 Alpha  occ. eigenvalues --   -0.19566
 Alpha virt. eigenvalues --   -0.07964  -0.07373  -0.06713  -0.06418  -0.05439
 Alpha virt. eigenvalues --   -0.05318  -0.04808  -0.04237  -0.03841  -0.03575
 Alpha virt. eigenvalues --   -0.03004  -0.01379  -0.01216   0.04732   0.05738

 Mulliken charges:
               1
     1  Bi   0.031838
     2  Bi   0.103657
     3  Bi   0.116580
     4  Ge  -0.135778
     5  Bi   0.034180
     6  Sn  -0.071496
     7  Ge  -0.029963
     8  Ge  -0.038724
     9  Sn  -0.010294
 Sum of Mulliken charges =   0.00000

 Dipole moment (field-independent basis, Debye):
    X=              0.2304    Y=             -0.9916    Z=             -0.9924  Tot=              1.4217
 Quadrupole moment (field-independent basis, Debye-Ang):
   XX=           -212.5989   YY=           -218.8271   ZZ=           -223.6650
   XY=              0.2990   XZ=             -1.7209   YZ=              0.0315

  Exact polarizability: 376.493   4.296 381.040   0.986  -4.374 381.923
 Approx polarizability:1186.776  22.8301178.084 -35.581 -25.9621230.219

                      1                      2                      3
                      A                      A                      A
 Frequencies --     21.2083                57.5775                68.2173
 Red. masses --    152.3509               133.9448               138.4483
 Frc consts  --      0.0404                 0.2616                 0.3796
 IR Inten    --      0.1294                 0.1773                 0.0893

                      4                      5                      6
                      A                      A                      A
 Frequencies --     82.2028                88.7326                97.1329
 Red. masses --    162.6707               177.9416               119.1427
 Frc consts  --      0.6476                 0.8255                 0.6623
 IR Inten    --      0.0316                 0.0258                 0.1347

                      7                      8                      9
                      A                      A                      A
 Frequencies --    101.0027               104.7214               108.2571
 Red. masses --    108.1974               112.2735               141.3798
 Frc consts  --      0.6503                 0.7254                 0.9762
 IR Inten    --      0.0860                 0.3905                 0.1699

                     10                     11                     12
                      A                      A                      A
 Frequencies --    112.8334               118.3397               121.0963
 Red. masses --    100.2382               132.9522               133.2570
 Frc consts  --      0.7519                 1.0970                 1.1513
 IR Inten    --      0.2046                 0.0868                 0.2652

                     13                     14                     15
                      A                      A                      A
 Frequencies --    128.0032               138.1870               142.7145
 Red. masses --    115.8609               109.5005               130.3965
 Frc consts  --      1.1185                 1.2320                 1.5648
 IR Inten    --      0.3336                 0.4769                 0.2444

                     16                     17                     18
                      A                      A                      A
 Frequencies --    152.3430               159.4632               165.4667
 Red. masses --    111.4984                83.7557                84.5548
 Frc consts  --      1.5246                 1.2548                 1.3640
 IR Inten    --      0.3475                 0.1000                 0.0444

                     19                     20                     21
                      A                      A                      A
 Frequencies --    171.6622               188.1032               215.0018
 Red. masses --     88.1637                76.5050                75.4522
 Frc consts  --      1.5307                 1.5949                 2.0550
 IR Inten    --      0.1546                 0.0819                 1.3991

 - Thermochemistry -
 -------------------
 Temperature   298.150 Kelvin.  Pressure   1.00000 Atm.
 Atom     1 has atomic number 83 and mass 208.98040

 Molecular mass:  1293.48874 amu.
 Principal axes and moments of inertia in atomic units:
                           1         2         3
     Eigenvalues --  ******************************
           X            0.99994   0.01110   0.00074
           Y           -0.01110   0.99993  -0.00295
           Z           -0.00077   0.00295   1.00000
 This molecule is an asymmetric top.
 Rotational symmetry number  1.
 Warning -- assumption of classical behavior for rotation
           may cause significant error
 Rotational temperatures (Kelvin)      0.00511     0.00464     0.00400
 Rotational constants (GHZ):           0.10653     0.09671     0.08329
 Zero-point vibrational energy      15206.1 (Joules/Mol)
                                    3.63435 (Kcal/Mol)
 Warning -- explicit consideration of  21 degrees of freedom as
           vibrations may cause significant error
 Vibrational temperatures:     30.51    82.84    98.15   118.27   127.67
          (Kelvin)            139.75   145.32   150.67   155.76   162.34
                              170.26   174.23   184.17   198.82   205.33
                              219.19   229.43   238.07   246.98   270.64
                              309.34

 Zero-point correction=                           0.005792 (Hartree/Particle)
 Thermal correction to Energy=                    0.023295
 Thermal correction to Enthalpy=                  0.024240
 Thermal correction to Gibbs Free Energy=        -0.048582
 Sum of electronic and zero-point Energies=          -7517.810791
 Sum of electronic and thermal Energies=             -7517.793287
 Sum of electronic and thermal Enthalpies=           -7517.792343
 Sum of electronic and thermal Free Energies=        -7517.865164

                     E (Thermal)             CV                S
                      KCal/Mol        Cal/Mol-Kelvin    Cal/Mol-Kelvin
 Total                   14.618             46.381            153.265
 Electronic               0.000              0.000              0.000
 Translational            0.889              2.981             47.349
 Rotational               0.889              2.981             37.169
 Vibrational             12.841             40.419             68.747
 Vibration     1          0.593              1.985              6.518
 Vibration     2          0.596              1.974              4.539
 Vibration     3          0.598              1.969              4.204
 Vibration     4          0.600              1.961              3.838
 Vibration     5          0.602              1.957              3.688
 Vibration     6          0.603              1.951              3.511
 Vibration     7          0.604              1.948              3.435
 Vibration     8          0.605              1.945              3.364
 Vibration     9          0.606              1.943              3.300
 Vibration    10          0.607              1.939              3.220
 Vibration    11          0.609              1.934              3.127
 Vibration    12          0.609              1.932              3.083
 Vibration    13          0.611              1.925              2.976
 Vibration    14          0.614              1.915              2.829
 Vibration    15          0.616              1.910              2.767
 Vibration    16          0.619              1.900              2.643
 Vibration    17          0.621              1.892              2.556
 Vibration    18          0.624              1.885              2.486
 Vibration    19          0.626              1.877              2.417
 Vibration    20          0.633              1.856              2.246
 Vibration    21          0.645              1.818              2.001

 Normal termination of Gaussian 09 at Tue Mar  6 18:46:22 2018.
