 Gaussian 09, Revision D.01,
 Gaussian 09:  ES64L-G09RevD.01 24-Apr-2013

 ----------------------------------------------------------------------
 #p PBE1PBE/Def2TZVP scf=(maxcycle=768) opt=(cartesian,maxcycle=512) fr
 eq
 ----------------------------------------------------------------------

 ---------------------
 01Final_coords.xyz_54
 ---------------------
 Symbolic Z-matrix:
 Charge =  0 Multiplicity = 1

 SCF Done:  E(RPBE1PBE) =  -7517.80289408     A.U. after   16 cycles
 SCF Done:  E(RPBE1PBE) =  -7517.80823213     A.U. after   13 cycles
 SCF Done:  E(RPBE1PBE) =  -7517.80938723     A.U. after   12 cycles
 SCF Done:  E(RPBE1PBE) =  -7517.80947542     A.U. after   11 cycles
 SCF Done:  E(RPBE1PBE) =  -7517.80953606     A.U. after   11 cycles
 SCF Done:  E(RPBE1PBE) =  -7517.80954726     A.U. after    9 cycles
 SCF Done:  E(RPBE1PBE) =  -7517.80954961     A.U. after    9 cycles
 Optimization completed.
    -- Stationary point found.
 Normal termination of Gaussian 09 at Tue Mar  6 17:53:57 2018.

 ----------------------------------------------------------------------
 #P Geom=AllCheck Guess=TCheck SCRF=Check GenChk RPBE1PBE/def2TZVP Freq
 ----------------------------------------------------------------------

 Structure from the checkpoint file:  "Isomer_54.chk"
 ---------------------
 01Final_coords.xyz_54
 ---------------------
 Charge =  0 Multiplicity = 1

                         Standard orientation:
 ---------------------------------------------------------------------
 Center     Atomic      Atomic             Coordinates (Angstroms)
 Number     Number       Type             X           Y           Z
 ---------------------------------------------------------------------
      1         83           0       -1.521981   -1.001644   -1.512111
      2         83           0        2.505875    0.556992    0.007205
      3         83           0       -1.736219    1.622215   -0.037230
      4         32           0        0.498289    1.026778    2.123973
      5         83           0       -1.548335   -0.950353    1.531009
      6         32           0        0.758783    2.715715   -0.014404
      7         32           0        0.507714    0.993690   -2.134085
      8         50           0        1.359384   -1.716793   -1.541142
      9         50           0        1.330250   -1.691532    1.575302
 ---------------------------------------------------------------------

 SCF Done:  E(RPBE1PBE) =  -7517.80954961     A.U. after    1 cycles

 The electronic state is 1-A.
 Alpha  occ. eigenvalues -- -399.09935-399.09902-399.09380 -49.91522 -49.91491
 Alpha  occ. eigenvalues --  -49.91049 -44.39620 -44.39589 -44.39560 -44.39545
 Alpha  occ. eigenvalues --  -44.39529 -44.39513 -44.39110 -44.39101 -44.39070
 Alpha  occ. eigenvalues --   -6.28043  -6.28012  -6.27604  -6.03103  -6.02027
 Alpha  occ. eigenvalues --   -6.01998  -6.01962  -5.12507  -5.12503  -4.43543
 Alpha  occ. eigenvalues --   -4.43513  -4.43341  -4.43314  -4.43303  -4.43271
 Alpha  occ. eigenvalues --   -4.43037  -4.42971  -4.42884  -3.75377  -3.75319
 Alpha  occ. eigenvalues --   -3.75064  -3.74313  -3.74277  -3.74252  -3.74228
 Alpha  occ. eigenvalues --   -3.74178  -3.74134  -3.74051  -3.73923  -3.73893
 Alpha  occ. eigenvalues --   -3.45770  -3.45765  -3.45639  -3.45637  -3.45470
 Alpha  occ. eigenvalues --   -3.45458  -1.22997  -1.22968  -1.22925  -1.22901
 Alpha  occ. eigenvalues --   -1.22898  -1.22869  -1.22797  -1.22760  -1.22738
 Alpha  occ. eigenvalues --   -1.22703  -1.22485  -1.22473  -1.22462  -1.22329
 Alpha  occ. eigenvalues --   -1.22300  -1.09370  -1.09359  -1.09004  -1.08794
 Alpha  occ. eigenvalues --   -1.08790  -1.08424  -1.08029  -1.08018  -1.07958
 Alpha  occ. eigenvalues --   -1.07915  -1.07899  -1.07856  -1.07799  -1.07683
 Alpha  occ. eigenvalues --   -1.07681  -1.07644  -1.07602  -1.07498  -1.07424
 Alpha  occ. eigenvalues --   -1.07316  -1.02078  -1.02029  -1.02015  -1.01976
 Alpha  occ. eigenvalues --   -1.01957  -1.01803  -1.01747  -1.01668  -1.01580
 Alpha  occ. eigenvalues --   -1.01447  -0.68633  -0.63361  -0.59323  -0.59241
 Alpha  occ. eigenvalues --   -0.49024  -0.48445  -0.46635  -0.40969  -0.40087
 Alpha  occ. eigenvalues --   -0.30340  -0.27731  -0.27305  -0.26804  -0.25333
 Alpha  occ. eigenvalues --   -0.25263  -0.23683  -0.23160  -0.22507  -0.20210
 Alpha  occ. eigenvalues --   -0.19572
 Alpha virt. eigenvalues --   -0.07448  -0.07295  -0.07030  -0.06481  -0.05673
 Alpha virt. eigenvalues --   -0.05640  -0.04730  -0.04452  -0.04225  -0.03275
 Alpha virt. eigenvalues --   -0.02788  -0.01236  -0.01002   0.04559   0.05580

 Mulliken charges:
               1
     1  Bi   0.029201
     2  Bi   0.138312
     3  Bi   0.160112
     4  Ge  -0.078376
     5  Bi   0.021515
     6  Ge  -0.143339
     7  Ge  -0.078952
     8  Sn  -0.026918
     9  Sn  -0.021555
 Sum of Mulliken charges =   0.00000

 Dipole moment (field-independent basis, Debye):
    X=             -1.3677    Y=             -0.4137    Z=             -0.0047  Tot=              1.4289
 Quadrupole moment (field-independent basis, Debye-Ang):
   XX=           -212.3220   YY=           -218.5934   ZZ=           -223.9880
   XY=              0.5201   XZ=              0.0031   YZ=             -0.0192

  Exact polarizability: 384.422 -10.263 383.742  -0.085  -0.049 372.227
 Approx polarizability:1164.262 -21.8191265.160  -0.706   0.1791167.111

                      1                      2                      3
                      A                      A                      A
 Frequencies --      7.7701                61.6813                73.1623
 Red. masses --    132.8188               105.0516               137.6575
 Frc consts  --      0.0047                 0.2355                 0.4341
 IR Inten    --      0.0041                 0.1595                 0.0247

                      4                      5                      6
                      A                      A                      A
 Frequencies --     74.4816                84.6944                89.8660
 Red. masses --    183.2823               148.4320               170.4920
 Frc consts  --      0.5991                 0.6273                 0.8112
 IR Inten    --      0.0172                 0.2535                 0.0530

                      7                      8                      9
                      A                      A                      A
 Frequencies --     95.5093                99.5139               104.5794
 Red. masses --    139.8614               178.8907                98.3029
 Frc consts  --      0.7517                 1.0438                 0.6334
 IR Inten    --      0.1568                 0.0249                 0.5035

                     10                     11                     12
                      A                      A                      A
 Frequencies --    118.6248               123.6661               124.5250
 Red. masses --    105.7232               111.7629               106.5390
 Frc consts  --      0.8765                 1.0070                 0.9734
 IR Inten    --      0.3275                 0.3545                 0.3477

                     13                     14                     15
                      A                      A                      A
 Frequencies --    137.0640               137.8037               140.2857
 Red. masses --     98.3400                97.9430               147.2577
 Frc consts  --      1.0885                 1.0958                 1.7075
 IR Inten    --      0.0980                 0.1014                 0.0776

                     16                     17                     18
                      A                      A                      A
 Frequencies --    150.7551               153.4943               165.6546
 Red. masses --    124.5861                86.3220                85.8642
 Frc consts  --      1.6683                 1.1983                 1.3883
 IR Inten    --      0.3343                 0.0558                 0.2804

                     19                     20                     21
                      A                      A                      A
 Frequencies --    166.5001               186.5772               194.5129
 Red. masses --     83.5826                86.4119                80.2674
 Frc consts  --      1.3652                 1.7723                 1.7893
 IR Inten    --      0.0424                 0.4530                 0.8462

 - Thermochemistry -
 -------------------
 Temperature   298.150 Kelvin.  Pressure   1.00000 Atm.
 Atom     1 has atomic number 83 and mass 208.98040

 Molecular mass:  1293.48874 amu.
 Principal axes and moments of inertia in atomic units:
                           1         2         3
     Eigenvalues --  ******************************
           X            0.99988  -0.01545  -0.00019
           Y            0.01545   0.99988  -0.00004
           Z            0.00019   0.00003   1.00000
 This molecule is an asymmetric top.
 Rotational symmetry number  1.
 Warning -- assumption of classical behavior for rotation
           may cause significant error
 Rotational temperatures (Kelvin)      0.00527     0.00430     0.00416
 Rotational constants (GHZ):           0.10975     0.08954     0.08673
 Zero-point vibrational energy      14897.8 (Joules/Mol)
                                    3.56067 (Kcal/Mol)
 Warning -- explicit consideration of  21 degrees of freedom as
           vibrations may cause significant error
 Vibrational temperatures:     11.18    88.75   105.26   107.16   121.86
          (Kelvin)            129.30   137.42   143.18   150.47   170.67
                              177.93   179.16   197.20   198.27   201.84
                              216.90   220.84   238.34   239.56   268.44
                              279.86

 Zero-point correction=                           0.005674 (Hartree/Particle)
 Thermal correction to Energy=                    0.023272
 Thermal correction to Enthalpy=                  0.024216
 Thermal correction to Gibbs Free Energy=        -0.049773
 Sum of electronic and zero-point Energies=          -7517.803875
 Sum of electronic and thermal Energies=             -7517.786278
 Sum of electronic and thermal Enthalpies=           -7517.785334
 Sum of electronic and thermal Free Energies=        -7517.859323

                     E (Thermal)             CV                S
                      KCal/Mol        Cal/Mol-Kelvin    Cal/Mol-Kelvin
 Total                   14.603             46.429            155.723
 Electronic               0.000              0.000              0.000
 Translational            0.889              2.981             47.349
 Rotational               0.889              2.981             37.176
 Vibrational             12.826             40.467             71.198
 Vibration     1          0.593              1.987              8.512
 Vibration     2          0.597              1.973              4.403
 Vibration     3          0.599              1.967              4.066
 Vibration     4          0.599              1.966              4.031
 Vibration     5          0.601              1.960              3.779
 Vibration     6          0.602              1.956              3.663
 Vibration     7          0.603              1.952              3.544
 Vibration     8          0.604              1.949              3.464
 Vibration     9          0.605              1.946              3.367
 Vibration    10          0.609              1.934              3.123
 Vibration    11          0.610              1.929              3.042
 Vibration    12          0.610              1.928              3.029
 Vibration    13          0.614              1.916              2.844
 Vibration    14          0.614              1.916              2.834
 Vibration    15          0.615              1.913              2.800
 Vibration    16          0.618              1.902              2.663
 Vibration    17          0.619              1.899              2.628
 Vibration    18          0.624              1.885              2.484
 Vibration    19          0.624              1.884              2.475
 Vibration    20          0.632              1.858              2.262
 Vibration    21          0.635              1.848              2.184

 Normal termination of Gaussian 09 at Tue Mar  6 19:04:30 2018.
