 Gaussian 09, Revision D.01,
 Gaussian 09:  ES64L-G09RevD.01 24-Apr-2013

 ----------------------------------------------------------------------
 #p PBE1PBE/Def2TZVP scf=(maxcycle=768) opt=(cartesian,maxcycle=512) fr
 eq
 ----------------------------------------------------------------------

 ---------------------
 01Final_coords.xyz_28
 ---------------------
 Symbolic Z-matrix:
 Charge =  0 Multiplicity = 1

 SCF Done:  E(RPBE1PBE) =  -7517.81516507     A.U. after   18 cycles
 SCF Done:  E(RPBE1PBE) =  -7517.82146073     A.U. after   13 cycles
 SCF Done:  E(RPBE1PBE) =  -7517.82307094     A.U. after   12 cycles
 SCF Done:  E(RPBE1PBE) =  -7517.82318826     A.U. after   11 cycles
 SCF Done:  E(RPBE1PBE) =  -7517.82325503     A.U. after   11 cycles
 SCF Done:  E(RPBE1PBE) =  -7517.82327481     A.U. after   11 cycles
 SCF Done:  E(RPBE1PBE) =  -7517.82328008     A.U. after    9 cycles
 SCF Done:  E(RPBE1PBE) =  -7517.82327978     A.U. after   10 cycles
 SCF Done:  E(RPBE1PBE) =  -7517.82328194     A.U. after    4 cycles
 SCF Done:  E(RPBE1PBE) =  -7517.82328197     A.U. after    9 cycles
 SCF Done:  E(RPBE1PBE) =  -7517.82328310     A.U. after    9 cycles
 Optimization completed.
    -- Stationary point found.
 Normal termination of Gaussian 09 at Thu Mar  8 09:35:25 2018.

 ----------------------------------------------------------------------
 #P Geom=AllCheck Guess=TCheck SCRF=Check GenChk RPBE1PBE/def2TZVP Freq
 ----------------------------------------------------------------------

 Structure from the checkpoint file:  "Isomer_28.chk"
 ---------------------
 01Final_coords.xyz_28
 ---------------------
 Charge =  0 Multiplicity = 1

                         Standard orientation:
 ---------------------------------------------------------------------
 Center     Atomic      Atomic             Coordinates (Angstroms)
 Number     Number       Type             X           Y           Z
 ---------------------------------------------------------------------
      1         83           0        2.032243   -0.781750    0.843978
      2         50           0       -1.145751    1.833558   -1.564273
      3         32           0        0.950097    1.168180    2.533961
      4         83           0       -0.354534   -2.208890   -0.349730
      5         32           0       -0.732856   -0.780088    2.230341
      6         83           0        1.116231   -0.141924   -1.994179
      7         32           0       -1.182077    1.937904    1.295809
      8         83           0       -2.559440   -0.231378    0.138749
      9         50           0        1.373977    2.261948   -0.054637
 ---------------------------------------------------------------------

 SCF Done:  E(RPBE1PBE) =  -7517.82328310     A.U. after    1 cycles

 The electronic state is 1-A.
 Alpha  occ. eigenvalues -- -399.10161-399.08791-399.08789 -49.91763 -49.90477
 Alpha  occ. eigenvalues --  -49.90446 -44.39872 -44.39808 -44.39763 -44.38554
 Alpha  occ. eigenvalues --  -44.38532 -44.38525 -44.38489 -44.38482 -44.38462
 Alpha  occ. eigenvalues --   -6.28299  -6.27041  -6.27001  -6.03087  -6.02801
 Alpha  occ. eigenvalues --   -6.01758  -6.01454  -5.13244  -5.12506  -4.43834
 Alpha  occ. eigenvalues --   -4.43639  -4.43489  -4.42517  -4.42488  -4.42419
 Alpha  occ. eigenvalues --   -4.42363  -4.42279  -4.42250  -3.75381  -3.75291
 Alpha  occ. eigenvalues --   -3.75067  -3.75030  -3.74960  -3.74797  -3.74087
 Alpha  occ. eigenvalues --   -3.73963  -3.73802  -3.73633  -3.73565  -3.73426
 Alpha  occ. eigenvalues --   -3.46577  -3.46329  -3.46190  -3.45760  -3.45595
 Alpha  occ. eigenvalues --   -3.45517  -1.23304  -1.23249  -1.23124  -1.23036
 Alpha  occ. eigenvalues --   -1.22969  -1.22131  -1.22026  -1.22002  -1.21927
 Alpha  occ. eigenvalues --   -1.21877  -1.21863  -1.21831  -1.21706  -1.21655
 Alpha  occ. eigenvalues --   -1.21539  -1.09548  -1.09332  -1.08997  -1.08953
 Alpha  occ. eigenvalues --   -1.08813  -1.08759  -1.08663  -1.08533  -1.08432
 Alpha  occ. eigenvalues --   -1.08349  -1.07693  -1.07582  -1.07431  -1.07414
 Alpha  occ. eigenvalues --   -1.07332  -1.07284  -1.07265  -1.07178  -1.07101
 Alpha  occ. eigenvalues --   -1.07017  -1.02868  -1.02743  -1.02620  -1.02584
 Alpha  occ. eigenvalues --   -1.02427  -1.01917  -1.01901  -1.01840  -1.01651
 Alpha  occ. eigenvalues --   -1.01605  -0.68677  -0.62451  -0.59780  -0.58344
 Alpha  occ. eigenvalues --   -0.53092  -0.48542  -0.43396  -0.42212  -0.39666
 Alpha  occ. eigenvalues --   -0.30016  -0.28449  -0.27151  -0.26758  -0.25257
 Alpha  occ. eigenvalues --   -0.25149  -0.23727  -0.22300  -0.21848  -0.21292
 Alpha  occ. eigenvalues --   -0.20398
 Alpha virt. eigenvalues --   -0.07685  -0.07419  -0.06979  -0.06694  -0.05869
 Alpha virt. eigenvalues --   -0.05184  -0.05024  -0.04506  -0.03406  -0.02642
 Alpha virt. eigenvalues --   -0.02313  -0.01683  -0.01189   0.04775   0.05736

 Mulliken charges:
               1
     1  Bi   0.136718
     2  Sn  -0.023564
     3  Ge  -0.132158
     4  Bi   0.039715
     5  Ge  -0.038358
     6  Bi  -0.010562
     7  Ge  -0.050068
     8  Bi   0.030500
     9  Sn   0.047777
 Sum of Mulliken charges =   0.00000

 Dipole moment (field-independent basis, Debye):
    X=              0.5562    Y=             -2.0761    Z=             -1.4063  Tot=              2.5685
 Quadrupole moment (field-independent basis, Debye-Ang):
   XX=           -215.2191   YY=           -218.7984   ZZ=           -221.8060
   XY=              0.9740   XZ=              1.4141   YZ=              0.4436

  Exact polarizability: 379.967   2.191 381.110   4.503  -4.185 372.620
 Approx polarizability:1164.318  14.7961168.550  26.129   7.6631191.171

                      1                      2                      3
                      A                      A                      A
 Frequencies --     38.0607                68.4333                73.1624
 Red. masses --    168.2905               118.2116               153.6092
 Frc consts  --      0.1436                 0.3262                 0.4844
 IR Inten    --      0.0106                 0.0724                 0.0347

                      4                      5                      6
                      A                      A                      A
 Frequencies --     86.4427                92.6123                95.0998
 Red. masses --    152.6242               125.1652               137.4610
 Frc consts  --      0.6719                 0.6325                 0.7325
 IR Inten    --      0.0733                 0.0274                 0.0490

                      7                      8                      9
                      A                      A                      A
 Frequencies --     99.5753               101.8738               109.2779
 Red. masses --    185.8648               131.8506               114.8884
 Frc consts  --      1.0858                 0.8062                 0.8083
 IR Inten    --      0.0427                 0.1036                 0.3011

                     10                     11                     12
                      A                      A                      A
 Frequencies --    113.9279               116.1954               123.7172
 Red. masses --    121.6583               116.2753               107.7708
 Frc consts  --      0.9304                 0.9249                 0.9719
 IR Inten    --      0.0186                 0.0697                 0.4565

                     13                     14                     15
                      A                      A                      A
 Frequencies --    128.0554               135.6775               138.4431
 Red. masses --    106.8507               157.1483               106.8590
 Frc consts  --      1.0323                 1.7044                 1.2067
 IR Inten    --      0.3989                 0.0888                 0.3265

                     16                     17                     18
                      A                      A                      A
 Frequencies --    152.6750               162.0955               168.1227
 Red. masses --     93.4302                88.6063                85.2738
 Frc consts  --      1.2831                 1.3717                 1.4201
 IR Inten    --      0.2148                 0.4192                 0.4596

                     19                     20                     21
                      A                      A                      A
 Frequencies --    170.9785               191.0417               216.0626
 Red. masses --     88.2771                76.4192                75.4854
 Frc consts  --      1.5205                 1.6433                 2.0762
 IR Inten    --      0.0507                 0.2109                 1.1062

 - Thermochemistry -
 -------------------
 Temperature   298.150 Kelvin.  Pressure   1.00000 Atm.
 Atom     1 has atomic number 83 and mass 208.98040

 Molecular mass:  1293.48874 amu.
 Principal axes and moments of inertia in atomic units:
                           1         2         3
     Eigenvalues --  ******************************
           X            0.99992   0.00723   0.01022
           Y           -0.00729   0.99995   0.00615
           Z           -0.01017  -0.00622   0.99993
 This molecule is an asymmetric top.
 Rotational symmetry number  1.
 Warning -- assumption of classical behavior for rotation
           may cause significant error
 Rotational temperatures (Kelvin)      0.00500     0.00452     0.00426
 Rotational constants (GHZ):           0.10424     0.09411     0.08882
 Zero-point vibrational energy      15441.0 (Joules/Mol)
                                    3.69048 (Kcal/Mol)
 Warning -- explicit consideration of  21 degrees of freedom as
           vibrations may cause significant error
 Vibrational temperatures:     54.76    98.46   105.26   124.37   133.25
          (Kelvin)            136.83   143.27   146.57   157.23   163.92
                              167.18   178.00   184.24   195.21   199.19
                              219.67   233.22   241.89   246.00   274.87
                              310.87

 Zero-point correction=                           0.005881 (Hartree/Particle)
 Thermal correction to Energy=                    0.023305
 Thermal correction to Enthalpy=                  0.024249
 Thermal correction to Gibbs Free Energy=        -0.047737
 Sum of electronic and zero-point Energies=          -7517.817402
 Sum of electronic and thermal Energies=             -7517.799978
 Sum of electronic and thermal Enthalpies=           -7517.799034
 Sum of electronic and thermal Free Energies=        -7517.871020

                     E (Thermal)             CV                S
                      KCal/Mol        Cal/Mol-Kelvin    Cal/Mol-Kelvin
 Total                   14.624             46.362            151.506
 Electronic               0.000              0.000              0.000
 Translational            0.889              2.981             47.349
 Rotational               0.889              2.981             37.154
 Vibrational             12.846             40.400             67.004
 Vibration     1          0.594              1.982              5.358
 Vibration     2          0.598              1.969              4.198
 Vibration     3          0.599              1.967              4.066
 Vibration     4          0.601              1.959              3.739
 Vibration     5          0.602              1.954              3.604
 Vibration     6          0.603              1.953              3.552
 Vibration     7          0.604              1.949              3.463
 Vibration     8          0.604              1.948              3.418
 Vibration     9          0.606              1.942              3.282
 Vibration    10          0.607              1.938              3.201
 Vibration    11          0.608              1.936              3.163
 Vibration    12          0.610              1.929              3.041
 Vibration    13          0.611              1.925              2.975
 Vibration    14          0.614              1.918              2.864
 Vibration    15          0.614              1.915              2.825
 Vibration    16          0.619              1.900              2.639
 Vibration    17          0.622              1.889              2.525
 Vibration    18          0.625              1.882              2.456
 Vibration    19          0.626              1.878              2.425
 Vibration    20          0.634              1.852              2.218
 Vibration    21          0.645              1.817              1.992

 Normal termination of Gaussian 09 at Thu Mar  8 10:46:19 2018.
