 Gaussian 09, Revision D.01,
 Gaussian 09:  ES64L-G09RevD.01 24-Apr-2013

 ----------------------------------------------------------------------
 #p PBE1PBE/Def2TZVP scf=(maxcycle=768) opt=(cartesian,maxcycle=512) fr
 eq
 ----------------------------------------------------------------------

 ---------------------
 01Final_coords.xyz_29
 ---------------------
 Symbolic Z-matrix:
 Charge =  0 Multiplicity = 1

 SCF Done:  E(RPBE1PBE) =  -7517.81225169     A.U. after   17 cycles
 SCF Done:  E(RPBE1PBE) =  -7517.81785568     A.U. after   12 cycles
 SCF Done:  E(RPBE1PBE) =  -7517.81914218     A.U. after   12 cycles
 SCF Done:  E(RPBE1PBE) =  -7517.81922370     A.U. after   10 cycles
 SCF Done:  E(RPBE1PBE) =  -7517.81926141     A.U. after   10 cycles
 SCF Done:  E(RPBE1PBE) =  -7517.81926846     A.U. after   10 cycles
 SCF Done:  E(RPBE1PBE) =  -7517.81927054     A.U. after    9 cycles
 Optimization completed.
    -- Stationary point found.
 Normal termination of Gaussian 09 at Tue Mar  6 14:49:29 2018.

 ----------------------------------------------------------------------
 #P Geom=AllCheck Guess=TCheck SCRF=Check GenChk RPBE1PBE/def2TZVP Freq
 ----------------------------------------------------------------------

 Structure from the checkpoint file:  "Isomer_29.chk"
 ---------------------
 01Final_coords.xyz_29
 ---------------------
 Charge =  0 Multiplicity = 1

                         Standard orientation:
 ---------------------------------------------------------------------
 Center     Atomic      Atomic             Coordinates (Angstroms)
 Number     Number       Type             X           Y           Z
 ---------------------------------------------------------------------
      1         83           0        1.571644    1.603684   -0.589357
      2         83           0       -1.960049   -1.365211   -0.737602
      3         50           0        1.540493   -0.262378    2.082765
      4         50           0       -1.540995   -0.261902    2.082269
      5         32           0        0.000254    2.084350    1.717938
      6         32           0       -0.000106   -2.385318    1.037091
      7         83           0        1.960209   -1.365118   -0.737209
      8         83           0       -1.571641    1.603619   -0.589095
      9         32           0        0.000213   -0.116996   -2.380992
 ---------------------------------------------------------------------

 SCF Done:  E(RPBE1PBE) =  -7517.81927054     A.U. after    1 cycles

 The electronic state is 1-A.
 Alpha  occ. eigenvalues -- -399.09799-399.09282-399.08517 -49.91429 -49.90952
 Alpha  occ. eigenvalues --  -49.90184 -44.39508 -44.39480 -44.39446 -44.39020
 Alpha  occ. eigenvalues --  -44.39017 -44.38954 -44.38257 -44.38232 -44.38205
 Alpha  occ. eigenvalues --   -6.27956  -6.27494  -6.26727  -6.02933  -6.02933
 Alpha  occ. eigenvalues --   -6.01432  -6.01430  -5.13231  -5.13230  -4.43405
 Alpha  occ. eigenvalues --   -4.43329  -4.43198  -4.42929  -4.42923  -4.42708
 Alpha  occ. eigenvalues --   -4.42187  -4.42084  -4.42001  -3.75202  -3.75194
 Alpha  occ. eigenvalues --   -3.75103  -3.75102  -3.74941  -3.74938  -3.73739
 Alpha  occ. eigenvalues --   -3.73738  -3.73598  -3.73597  -3.73383  -3.73382
 Alpha  occ. eigenvalues --   -3.46526  -3.46523  -3.46356  -3.46354  -3.46185
 Alpha  occ. eigenvalues --   -3.46174  -1.22882  -1.22880  -1.22734  -1.22724
 Alpha  occ. eigenvalues --   -1.22660  -1.22469  -1.22437  -1.22277  -1.22254
 Alpha  occ. eigenvalues --   -1.22199  -1.21664  -1.21629  -1.21580  -1.21482
 Alpha  occ. eigenvalues --   -1.21446  -1.09346  -1.09049  -1.08976  -1.08877
 Alpha  occ. eigenvalues --   -1.08818  -1.08770  -1.08675  -1.08628  -1.08512
 Alpha  occ. eigenvalues --   -1.08410  -1.07416  -1.07403  -1.07318  -1.07285
 Alpha  occ. eigenvalues --   -1.07229  -1.07163  -1.07081  -1.07051  -1.07040
 Alpha  occ. eigenvalues --   -1.06947  -1.02838  -1.02812  -1.02749  -1.02719
 Alpha  occ. eigenvalues --   -1.02684  -1.02604  -1.02505  -1.02401  -1.02354
 Alpha  occ. eigenvalues --   -1.02158  -0.68583  -0.62792  -0.60857  -0.55208
 Alpha  occ. eigenvalues --   -0.54596  -0.46109  -0.45367  -0.42029  -0.40443
 Alpha  occ. eigenvalues --   -0.29863  -0.28280  -0.27349  -0.26236  -0.25579
 Alpha  occ. eigenvalues --   -0.25013  -0.23722  -0.22652  -0.21673  -0.21257
 Alpha  occ. eigenvalues --   -0.20542
 Alpha virt. eigenvalues --   -0.07988  -0.07069  -0.06486  -0.06131  -0.05853
 Alpha virt. eigenvalues --   -0.05658  -0.05421  -0.04444  -0.04200  -0.03059
 Alpha virt. eigenvalues --   -0.02752  -0.01395  -0.00231   0.05137   0.05813

 Mulliken charges:
               1
     1  Bi   0.134261
     2  Bi   0.061808
     3  Sn   0.072931
     4  Sn   0.072869
     5  Ge  -0.205945
     6  Ge  -0.173057
     7  Bi   0.061742
     8  Bi   0.134254
     9  Ge  -0.158863
 Sum of Mulliken charges =   0.00000

 Dipole moment (field-independent basis, Debye):
    X=             -0.0003    Y=              0.8300    Z=             -1.0422  Tot=              1.3323
 Quadrupole moment (field-independent basis, Debye-Ang):
   XX=           -214.8671   YY=           -218.5653   ZZ=           -221.8191
   XY=              0.0010   XZ=              0.0003   YZ=              0.4688

  Exact polarizability: 380.887   0.003 368.692   0.003   1.766 378.091
 Approx polarizability:1147.337   0.0421206.412   0.039  32.3461193.028

                      1                      2                      3
                      A                      A                      A
 Frequencies --     35.2142                58.3274                79.7538
 Red. masses --    138.9304               145.1361               160.7243
 Frc consts  --      0.1015                 0.2909                 0.6023
 IR Inten    --      0.0459                 0.1113                 0.0065

                      4                      5                      6
                      A                      A                      A
 Frequencies --     81.8897                88.7855                91.1486
 Red. masses --    146.1726               187.5235               143.0450
 Frc consts  --      0.5775                 0.8709                 0.7002
 IR Inten    --      0.1336                 0.0362                 0.0709

                      7                      8                      9
                      A                      A                      A
 Frequencies --     95.5049               109.3783               109.7549
 Red. masses --    136.5257               140.2090               136.1036
 Frc consts  --      0.7337                 0.9883                 0.9660
 IR Inten    --      0.0238                 0.2382                 0.1577

                     10                     11                     12
                      A                      A                      A
 Frequencies --    114.5519               118.9596               125.3955
 Red. masses --    122.5829               114.3359               101.4828
 Frc consts  --      0.9477                 0.9533                 0.9402
 IR Inten    --      0.2649                 0.3177                 0.1179

                     13                     14                     15
                      A                      A                      A
 Frequencies --    132.1821               149.9898               151.9516
 Red. masses --    127.3363                89.1827                91.0129
 Frc consts  --      1.3108                 1.1821                 1.2381
 IR Inten    --      0.3218                 0.9686                 0.3268

                     16                     17                     18
                      A                      A                      A
 Frequencies --    162.4819               164.6517               170.3217
 Red. masses --     88.5020                91.7920                82.5578
 Frc consts  --      1.3766                 1.4662                 1.4111
 IR Inten    --      0.5056                 0.2894                 0.0167

                     19                     20                     21
                      A                      A                      A
 Frequencies --    173.5775               174.2492               181.6714
 Red. masses --     84.0155                88.8384                83.6856
 Frc consts  --      1.4914                 1.5893                 1.6273
 IR Inten    --      0.8690                 0.7350                 0.4882

 - Thermochemistry -
 -------------------
 Temperature   298.150 Kelvin.  Pressure   1.00000 Atm.
 Atom     1 has atomic number 83 and mass 208.98040

 Molecular mass:  1293.48874 amu.
 Principal axes and moments of inertia in atomic units:
                           1         2         3
     Eigenvalues --  ******************************
           X            1.00000   0.00000   0.00000
           Y            0.00000   1.00000   0.00059
           Z            0.00000  -0.00059   1.00000
 This molecule is an asymmetric top.
 Rotational symmetry number  1.
 Warning -- assumption of classical behavior for rotation
           may cause significant error
 Rotational temperatures (Kelvin)      0.00513     0.00457     0.00417
 Rotational constants (GHZ):           0.10699     0.09520     0.08697
 Zero-point vibrational energy      15370.5 (Joules/Mol)
                                    3.67363 (Kcal/Mol)
 Warning -- explicit consideration of  21 degrees of freedom as
           vibrations may cause significant error
 Vibrational temperatures:     50.67    83.92   114.75   117.82   127.74
          (Kelvin)            131.14   137.41   157.37   157.91   164.81
                              171.16   180.42   190.18   215.80   218.62
                              233.77   236.90   245.05   249.74   250.71
                              261.38

 Zero-point correction=                           0.005854 (Hartree/Particle)
 Thermal correction to Energy=                    0.023295
 Thermal correction to Enthalpy=                  0.024239
 Thermal correction to Gibbs Free Energy=        -0.047874
 Sum of electronic and zero-point Energies=          -7517.813416
 Sum of electronic and thermal Energies=             -7517.795976
 Sum of electronic and thermal Enthalpies=           -7517.795032
 Sum of electronic and thermal Free Energies=        -7517.867144

                     E (Thermal)             CV                S
                      KCal/Mol        Cal/Mol-Kelvin    Cal/Mol-Kelvin
 Total                   14.618             46.381            151.774
 Electronic               0.000              0.000              0.000
 Translational            0.889              2.981             47.349
 Rotational               0.889              2.981             37.138
 Vibrational             12.840             40.419             67.288
 Vibration     1          0.594              1.982              5.512
 Vibration     2          0.596              1.974              4.513
 Vibration     3          0.600              1.963              3.897
 Vibration     4          0.600              1.962              3.845
 Vibration     5          0.602              1.957              3.687
 Vibration     6          0.602              1.955              3.635
 Vibration     7          0.603              1.952              3.544
 Vibration     8          0.606              1.942              3.280
 Vibration     9          0.606              1.941              3.273
 Vibration    10          0.607              1.937              3.190
 Vibration    11          0.609              1.934              3.117
 Vibration    12          0.610              1.928              3.015
 Vibration    13          0.612              1.921              2.914
 Vibration    14          0.618              1.903              2.672
 Vibration    15          0.619              1.901              2.648
 Vibration    16          0.623              1.888              2.521
 Vibration    17          0.623              1.886              2.496
 Vibration    18          0.625              1.879              2.432
 Vibration    19          0.627              1.875              2.396
 Vibration    20          0.627              1.874              2.389
 Vibration    21          0.630              1.865              2.311

 Normal termination of Gaussian 09 at Tue Mar  6 16:46:53 2018.
