 Gaussian 09, Revision D.01,
 Gaussian 09:  ES64L-G09RevD.01 24-Apr-2013

 ----------------------------------------------------------------------
 #p PBE1PBE/Def2TZVP scf=(maxcycle=768) opt=(cartesian,maxcycle=512) fr
 eq
 ----------------------------------------------------------------------

 ---------------------
 01Final_coords.xyz_35
 ---------------------
 Symbolic Z-matrix:
 Charge =  0 Multiplicity = 1

 SCF Done:  E(RPBE1PBE) =  -7517.81019382     A.U. after   17 cycles
 SCF Done:  E(RPBE1PBE) =  -7517.81577372     A.U. after   13 cycles
 SCF Done:  E(RPBE1PBE) =  -7517.81708490     A.U. after   12 cycles
 SCF Done:  E(RPBE1PBE) =  -7517.81720825     A.U. after   11 cycles
 SCF Done:  E(RPBE1PBE) =  -7517.81727902     A.U. after   11 cycles
 SCF Done:  E(RPBE1PBE) =  -7517.81729278     A.U. after   10 cycles
 SCF Done:  E(RPBE1PBE) =  -7517.81729689     A.U. after    9 cycles
 SCF Done:  E(RPBE1PBE) =  -7517.81729961     A.U. after    9 cycles
 SCF Done:  E(RPBE1PBE) =  -7517.81730118     A.U. after    9 cycles
 SCF Done:  E(RPBE1PBE) =  -7517.81730199     A.U. after    8 cycles
 SCF Done:  E(RPBE1PBE) =  -7517.81730250     A.U. after    8 cycles
 SCF Done:  E(RPBE1PBE) =  -7517.81730274     A.U. after    8 cycles
 Optimization completed.
    -- Stationary point found.
 Normal termination of Gaussian 09 at Tue Mar  6 16:34:38 2018.

 ----------------------------------------------------------------------
 #P Geom=AllCheck Guess=TCheck SCRF=Check GenChk RPBE1PBE/def2TZVP Freq
 ----------------------------------------------------------------------

 Structure from the checkpoint file:  "Isomer_35.chk"
 ---------------------
 01Final_coords.xyz_35
 ---------------------
 Charge =  0 Multiplicity = 1

                         Standard orientation:
 ---------------------------------------------------------------------
 Center     Atomic      Atomic             Coordinates (Angstroms)
 Number     Number       Type             X           Y           Z
 ---------------------------------------------------------------------
      1         32           0       -1.118736    0.598600    2.109591
      2         83           0        2.006898    0.844174   -1.134871
      3         83           0       -1.893183   -1.463411   -0.113403
      4         50           0        1.783682    0.170700    1.879812
      5         83           0       -1.981943    1.456598   -0.570760
      6         83           0        1.175011   -1.941044   -0.515898
      7         32           0       -0.382685   -0.172190   -2.292962
      8         50           0        0.420326    2.566690    0.803536
      9         32           0       -0.144309   -1.840903    2.046870
 ---------------------------------------------------------------------

 SCF Done:  E(RPBE1PBE) =  -7517.81730274     A.U. after    3 cycles

 The electronic state is 1-A.
 Alpha  occ. eigenvalues -- -399.09766-399.09275-399.09200 -49.91388 -49.90946
 Alpha  occ. eigenvalues --  -49.90825 -44.39472 -44.39441 -44.39401 -44.39021
 Alpha  occ. eigenvalues --  -44.39007 -44.38945 -44.38929 -44.38860 -44.38839
 Alpha  occ. eigenvalues --   -6.27912  -6.27497  -6.27362  -6.03100  -6.02928
 Alpha  occ. eigenvalues --   -6.01347  -6.01263  -5.13272  -5.12773  -4.43375
 Alpha  occ. eigenvalues --   -4.43287  -4.43135  -4.42950  -4.42916  -4.42890
 Alpha  occ. eigenvalues --   -4.42707  -4.42687  -4.42590  -3.75355  -3.75267
 Alpha  occ. eigenvalues --   -3.75183  -3.75130  -3.75113  -3.74927  -3.73644
 Alpha  occ. eigenvalues --   -3.73582  -3.73533  -3.73430  -3.73288  -3.73190
 Alpha  occ. eigenvalues --   -3.46554  -3.46398  -3.46232  -3.46032  -3.45885
 Alpha  occ. eigenvalues --   -3.45765  -1.22853  -1.22849  -1.22683  -1.22662
 Alpha  occ. eigenvalues --   -1.22594  -1.22514  -1.22484  -1.22427  -1.22342
 Alpha  occ. eigenvalues --   -1.22267  -1.22250  -1.22232  -1.22159  -1.22000
 Alpha  occ. eigenvalues --   -1.21933  -1.09455  -1.09173  -1.09088  -1.08998
 Alpha  occ. eigenvalues --   -1.08927  -1.08856  -1.08782  -1.08654  -1.08557
 Alpha  occ. eigenvalues --   -1.08457  -1.07318  -1.07248  -1.07230  -1.07139
 Alpha  occ. eigenvalues --   -1.07118  -1.07016  -1.06981  -1.06911  -1.06878
 Alpha  occ. eigenvalues --   -1.06786  -1.02910  -1.02766  -1.02690  -1.02629
 Alpha  occ. eigenvalues --   -1.02497  -1.02200  -1.02191  -1.02066  -1.01913
 Alpha  occ. eigenvalues --   -1.01826  -0.68652  -0.63001  -0.60169  -0.55422
 Alpha  occ. eigenvalues --   -0.55001  -0.45734  -0.45226  -0.42962  -0.39773
 Alpha  occ. eigenvalues --   -0.29956  -0.28137  -0.27417  -0.26169  -0.25651
 Alpha  occ. eigenvalues --   -0.25080  -0.23843  -0.22129  -0.21991  -0.21238
 Alpha  occ. eigenvalues --   -0.20357
 Alpha virt. eigenvalues --   -0.07963  -0.07262  -0.06519  -0.06260  -0.05797
 Alpha virt. eigenvalues --   -0.05589  -0.05097  -0.04555  -0.03968  -0.02874
 Alpha virt. eigenvalues --   -0.02334  -0.01990  -0.00804   0.04919   0.05736

 Mulliken charges:
               1
     1  Ge  -0.077762
     2  Bi   0.022733
     3  Bi   0.145960
     4  Sn   0.065188
     5  Bi   0.038182
     6  Bi   0.132836
     7  Ge  -0.146570
     8  Sn  -0.010079
     9  Ge  -0.170489
 Sum of Mulliken charges =   0.00000

 Dipole moment (field-independent basis, Debye):
    X=             -0.0001    Y=             -0.6600    Z=             -1.1460  Tot=              1.3225
 Quadrupole moment (field-independent basis, Debye-Ang):
   XX=           -215.3968   YY=           -215.1427   ZZ=           -224.2524
   XY=              0.6049   XZ=              0.8466   YZ=             -0.7545

  Exact polarizability: 379.747   2.837 386.649   7.279   0.607 365.141
 Approx polarizability:1161.598  13.4301227.900  13.947 -33.5411160.949

                      1                      2                      3
                      A                      A                      A
 Frequencies --     34.0242                53.8865                79.5025
 Red. masses --    140.3149               144.8605               136.3571
 Frc consts  --      0.0957                 0.2478                 0.5078
 IR Inten    --      0.0545                 0.1446                 0.0752

                      4                      5                      6
                      A                      A                      A
 Frequencies --     83.1020                85.4250                93.4897
 Red. masses --    164.6953               162.3889               127.0072
 Frc consts  --      0.6701                 0.6982                 0.6540
 IR Inten    --      0.0122                 0.1021                 0.1562

                      7                      8                      9
                      A                      A                      A
 Frequencies --     99.0373               105.7419               111.5072
 Red. masses --    132.5919               124.2291               132.8904
 Frc consts  --      0.7662                 0.8184                 0.9735
 IR Inten    --      0.0793                 0.1709                 0.4428

                     10                     11                     12
                      A                      A                      A
 Frequencies --    114.1708               117.3165               122.9733
 Red. masses --    100.3799               136.3491               112.1400
 Frc consts  --      0.7709                 1.1057                 0.9992
 IR Inten    --      0.0539                 0.1868                 0.0863

                     13                     14                     15
                      A                      A                      A
 Frequencies --    130.8802               139.4435               148.2306
 Red. masses --    124.1894               117.3298                95.7139
 Frc consts  --      1.2534                 1.3442                 1.2391
 IR Inten    --      0.4883                 0.1950                 0.2346

                     16                     17                     18
                      A                      A                      A
 Frequencies --    160.6546               164.6932               168.2947
 Red. masses --     87.4250                95.6759                85.4848
 Frc consts  --      1.3295                 1.5290                 1.4265
 IR Inten    --      0.1102                 0.4706                 0.0842

                     19                     20                     21
                      A                      A                      A
 Frequencies --    170.8428               171.3339               198.9810
 Red. masses --     87.2372                84.4201                77.7560
 Frc consts  --      1.5002                 1.4601                 1.8139
 IR Inten    --      0.4907                 0.5286                 0.9399

 - Thermochemistry -
 -------------------
 Temperature   298.150 Kelvin.  Pressure   1.00000 Atm.
 Atom     1 has atomic number 32 and mass  73.92118

 Molecular mass:  1293.48874 amu.
 Principal axes and moments of inertia in atomic units:
                           1         2         3
     Eigenvalues --  ******************************
           X            0.99952   0.02783   0.01391
           Y           -0.02791   0.99959   0.00562
           Z           -0.01374  -0.00600   0.99989
 This molecule is an asymmetric top.
 Rotational symmetry number  1.
 Warning -- assumption of classical behavior for rotation
           may cause significant error
 Rotational temperatures (Kelvin)      0.00505     0.00474     0.00398
 Rotational constants (GHZ):           0.10527     0.09879     0.08302
 Zero-point vibrational energy      15273.5 (Joules/Mol)
                                    3.65046 (Kcal/Mol)
 Warning -- explicit consideration of  21 degrees of freedom as
           vibrations may cause significant error
 Vibrational temperatures:     48.95    77.53   114.39   119.57   122.91
          (Kelvin)            134.51   142.49   152.14   160.43   164.27
                              168.79   176.93   188.31   200.63   213.27
                              231.15   236.96   242.14   245.80   246.51
                              286.29

 Zero-point correction=                           0.005817 (Hartree/Particle)
 Thermal correction to Energy=                    0.023290
 Thermal correction to Enthalpy=                  0.024234
 Thermal correction to Gibbs Free Energy=        -0.048083
 Sum of electronic and zero-point Energies=          -7517.811485
 Sum of electronic and thermal Energies=             -7517.794013
 Sum of electronic and thermal Enthalpies=           -7517.793068
 Sum of electronic and thermal Free Energies=        -7517.865386

                     E (Thermal)             CV                S
                      KCal/Mol        Cal/Mol-Kelvin    Cal/Mol-Kelvin
 Total                   14.615             46.391            152.204
 Electronic               0.000              0.000              0.000
 Translational            0.889              2.981             47.349
 Rotational               0.889              2.981             37.163
 Vibrational             12.837             40.429             67.692
 Vibration     1          0.594              1.983              5.580
 Vibration     2          0.596              1.976              4.669
 Vibration     3          0.600              1.963              3.903
 Vibration     4          0.600              1.961              3.816
 Vibration     5          0.601              1.959              3.762
 Vibration     6          0.603              1.954              3.586
 Vibration     7          0.604              1.950              3.473
 Vibration     8          0.605              1.945              3.346
 Vibration     9          0.607              1.940              3.243
 Vibration    10          0.607              1.938              3.197
 Vibration    11          0.608              1.935              3.144
 Vibration    12          0.610              1.930              3.053
 Vibration    13          0.612              1.922              2.933
 Vibration    14          0.615              1.914              2.812
 Vibration    15          0.618              1.905              2.695
 Vibration    16          0.622              1.891              2.542
 Vibration    17          0.623              1.886              2.495
 Vibration    18          0.625              1.881              2.454
 Vibration    19          0.626              1.878              2.426
 Vibration    20          0.626              1.878              2.421
 Vibration    21          0.637              1.841              2.143

 Normal termination of Gaussian 09 at Tue Mar  6 17:34:09 2018.
