 Gaussian 09, Revision D.01,
 Gaussian 09:  ES64L-G09RevD.01 24-Apr-2013

 ----------------------------------------------------------------------
 #p PBE1PBE/Def2TZVP scf=(maxcycle=768) opt=(cartesian,maxcycle=512) fr
 eq
 ----------------------------------------------------------------------

 ---------------------
 01Final_coords.xyz_34
 ---------------------
 Symbolic Z-matrix:
 Charge =  0 Multiplicity = 1

 SCF Done:  E(RPBE1PBE) =  -7517.81013995     A.U. after   16 cycles
 SCF Done:  E(RPBE1PBE) =  -7517.81565350     A.U. after   13 cycles
 SCF Done:  E(RPBE1PBE) =  -7517.81690481     A.U. after   12 cycles
 SCF Done:  E(RPBE1PBE) =  -7517.81703779     A.U. after   11 cycles
 SCF Done:  E(RPBE1PBE) =  -7517.81713138     A.U. after   11 cycles
 SCF Done:  E(RPBE1PBE) =  -7517.81714637     A.U. after   10 cycles
 SCF Done:  E(RPBE1PBE) =  -7517.81715136     A.U. after   10 cycles
 SCF Done:  E(RPBE1PBE) =  -7517.81715365     A.U. after    9 cycles
 SCF Done:  E(RPBE1PBE) =  -7517.81715265     A.U. after   11 cycles
 SCF Done:  E(RPBE1PBE) =  -7517.81715421     A.U. after    4 cycles
 SCF Done:  E(RPBE1PBE) =  -7517.81715416     A.U. after    9 cycles
 SCF Done:  E(RPBE1PBE) =  -7517.81715453     A.U. after    8 cycles
 Optimization completed.
    -- Stationary point found.
 Normal termination of Gaussian 09 at Tue Mar  6 16:31:21 2018.

 ----------------------------------------------------------------------
 #P Geom=AllCheck Guess=TCheck SCRF=Check GenChk RPBE1PBE/def2TZVP Freq
 ----------------------------------------------------------------------

 Structure from the checkpoint file:  "Isomer_34.chk"
 ---------------------
 01Final_coords.xyz_34
 ---------------------
 Charge =  0 Multiplicity = 1

                         Standard orientation:
 ---------------------------------------------------------------------
 Center     Atomic      Atomic             Coordinates (Angstroms)
 Number     Number       Type             X           Y           Z
 ---------------------------------------------------------------------
      1         83           0        2.271070    0.795347   -0.707704
      2         83           0       -1.579759   -1.711746   -0.574911
      3         50           0        0.219789    2.449523    0.845462
      4         50           0       -1.033898   -0.274898    2.163086
      5         83           0        1.192644   -1.944742    0.503530
      6         32           0       -0.068637    1.585688   -2.001562
      7         83           0       -2.247796    1.178999   -0.201255
      8         32           0        0.601786   -0.979212   -2.231771
      9         32           0        1.682608    0.358726    2.075236
 ---------------------------------------------------------------------

 SCF Done:  E(RPBE1PBE) =  -7517.81715453     A.U. after    2 cycles

 The electronic state is 1-A.
 Alpha  occ. eigenvalues -- -399.09175-399.08772-399.08554 -49.90847 -49.90420
 Alpha  occ. eigenvalues --  -49.90198 -44.38917 -44.38911 -44.38847 -44.38507
 Alpha  occ. eigenvalues --  -44.38486 -44.38411 -44.38268 -44.38260 -44.38211
 Alpha  occ. eigenvalues --   -6.27388  -6.26954  -6.26734  -6.02793  -6.02302
 Alpha  occ. eigenvalues --   -6.02230  -6.01541  -5.13804  -5.13424  -4.42832
 Alpha  occ. eigenvalues --   -4.42814  -4.42597  -4.42438  -4.42381  -4.42180
 Alpha  occ. eigenvalues --   -4.42134  -4.42116  -4.41971  -3.75077  -3.74918
 Alpha  occ. eigenvalues --   -3.74823  -3.74588  -3.74504  -3.74458  -3.74417
 Alpha  occ. eigenvalues --   -3.74313  -3.74191  -3.73872  -3.73613  -3.73554
 Alpha  occ. eigenvalues --   -3.47077  -3.46944  -3.46748  -3.46663  -3.46542
 Alpha  occ. eigenvalues --   -3.46431  -1.22364  -1.22336  -1.22175  -1.22148
 Alpha  occ. eigenvalues --   -1.22085  -1.21965  -1.21959  -1.21807  -1.21738
 Alpha  occ. eigenvalues --   -1.21687  -1.21667  -1.21633  -1.21467  -1.21439
 Alpha  occ. eigenvalues --   -1.21350  -1.09222  -1.08801  -1.08753  -1.08675
 Alpha  occ. eigenvalues --   -1.08531  -1.08418  -1.08223  -1.08153  -1.08124
 Alpha  occ. eigenvalues --   -1.08092  -1.08021  -1.08007  -1.07948  -1.07856
 Alpha  occ. eigenvalues --   -1.07700  -1.07490  -1.07358  -1.07213  -1.07172
 Alpha  occ. eigenvalues --   -1.07092  -1.03294  -1.03269  -1.03137  -1.03062
 Alpha  occ. eigenvalues --   -1.02998  -1.02855  -1.02844  -1.02746  -1.02633
 Alpha  occ. eigenvalues --   -1.02593  -0.68367  -0.62992  -0.61260  -0.56504
 Alpha  occ. eigenvalues --   -0.51998  -0.47843  -0.43734  -0.42129  -0.40822
 Alpha  occ. eigenvalues --   -0.29904  -0.28375  -0.27246  -0.26347  -0.25248
 Alpha  occ. eigenvalues --   -0.24534  -0.23677  -0.23296  -0.22331  -0.20892
 Alpha  occ. eigenvalues --   -0.19998
 Alpha virt. eigenvalues --   -0.07769  -0.07338  -0.06934  -0.06597  -0.05774
 Alpha virt. eigenvalues --   -0.05229  -0.04553  -0.04241  -0.03868  -0.03653
 Alpha virt. eigenvalues --   -0.02606  -0.02166   0.00086   0.04961   0.05675

 Mulliken charges:
               1
     1  Bi   0.145393
     2  Bi   0.060087
     3  Sn   0.069459
     4  Sn   0.062642
     5  Bi   0.122916
     6  Ge  -0.104427
     7  Bi   0.012705
     8  Ge  -0.149469
     9  Ge  -0.219304
 Sum of Mulliken charges =   0.00000

 Dipole moment (field-independent basis, Debye):
    X=             -0.4791    Y=             -0.9054    Z=              0.5694  Tot=              1.1720
 Quadrupole moment (field-independent basis, Debye-Ang):
   XX=           -212.8371   YY=           -217.1350   ZZ=           -224.9465
   XY=              0.2766   XZ=              0.4545   YZ=              0.6173

  Exact polarizability: 378.813   1.767 379.467  -0.575   3.093 371.623
 Approx polarizability:1183.719  -3.4041164.647  42.552   6.8681207.600

                      1                      2                      3
                      A                      A                      A
 Frequencies --     27.9450                56.3004                71.8067
 Red. masses --    129.0389               133.8693               129.6892
 Frc consts  --      0.0594                 0.2500                 0.3940
 IR Inten    --      0.2341                 0.1878                 0.0353

                      4                      5                      6
                      A                      A                      A
 Frequencies --     80.7685                83.7907                91.6743
 Red. masses --    148.8624               160.1784               166.1017
 Frc consts  --      0.5722                 0.6626                 0.8225
 IR Inten    --      0.0836                 0.1819                 0.1150

                      7                      8                      9
                      A                      A                      A
 Frequencies --     94.8437               103.0192               110.8949
 Red. masses --    139.6434               130.8072               139.2771
 Frc consts  --      0.7401                 0.8179                 1.0091
 IR Inten    --      0.0450                 0.0727                 0.0944

                     10                     11                     12
                      A                      A                      A
 Frequencies --    115.4820               119.8416               126.3856
 Red. masses --    134.9644               121.9535               109.5182
 Frc consts  --      1.0605                 1.0320                 1.0307
 IR Inten    --      0.2622                 0.1746                 0.1673

                     13                     14                     15
                      A                      A                      A
 Frequencies --    137.7676               140.4138               153.6011
 Red. masses --    117.1684               114.2694                89.6810
 Frc consts  --      1.3103                 1.3274                 1.2466
 IR Inten    --      0.4777                 0.9580                 1.0732

                     16                     17                     18
                      A                      A                      A
 Frequencies --    157.6146               162.8370               163.3201
 Red. masses --     87.4328                92.0105                85.5817
 Frc consts  --      1.2797                 1.4375                 1.3450
 IR Inten    --      0.6231                 0.0043                 0.0068

                     19                     20                     21
                      A                      A                      A
 Frequencies --    169.8893               180.0098               190.6946
 Red. masses --     81.9229                83.7005                81.0617
 Frc consts  --      1.3931                 1.5980                 1.7368
 IR Inten    --      0.2535                 0.5967                 0.7293

 - Thermochemistry -
 -------------------
 Temperature   298.150 Kelvin.  Pressure   1.00000 Atm.
 Atom     1 has atomic number 83 and mass 208.98040

 Molecular mass:  1293.48874 amu.
 Principal axes and moments of inertia in atomic units:
                           1         2         3
     Eigenvalues --  ******************************
           X            0.99993   0.01190  -0.00072
           Y           -0.01189   0.99987   0.01085
           Z            0.00085  -0.01084   0.99994
 This molecule is an asymmetric top.
 Rotational symmetry number  1.
 Warning -- assumption of classical behavior for rotation
           may cause significant error
 Rotational temperatures (Kelvin)      0.00520     0.00469     0.00396
 Rotational constants (GHZ):           0.10842     0.09767     0.08247
 Zero-point vibrational energy      15186.0 (Joules/Mol)
                                    3.62954 (Kcal/Mol)
 Warning -- explicit consideration of  21 degrees of freedom as
           vibrations may cause significant error
 Vibrational temperatures:     40.21    81.00   103.31   116.21   120.56
          (Kelvin)            131.90   136.46   148.22   159.55   166.15
                              172.43   181.84   198.22   202.02   221.00
                              226.77   234.29   234.98   244.43   258.99
                              274.37

 Zero-point correction=                           0.005784 (Hartree/Particle)
 Thermal correction to Energy=                    0.023286
 Thermal correction to Enthalpy=                  0.024231
 Thermal correction to Gibbs Free Energy=        -0.048365
 Sum of electronic and zero-point Energies=          -7517.811370
 Sum of electronic and thermal Energies=             -7517.793868
 Sum of electronic and thermal Enthalpies=           -7517.792924
 Sum of electronic and thermal Free Energies=        -7517.865519

                     E (Thermal)             CV                S
                      KCal/Mol        Cal/Mol-Kelvin    Cal/Mol-Kelvin
 Total                   14.612             46.398            152.790
 Electronic               0.000              0.000              0.000
 Translational            0.889              2.981             47.349
 Rotational               0.889              2.981             37.152
 Vibrational             12.835             40.436             68.289
 Vibration     1          0.593              1.984              5.970
 Vibration     2          0.596              1.975              4.583
 Vibration     3          0.598              1.967              4.103
 Vibration     4          0.600              1.962              3.872
 Vibration     5          0.601              1.960              3.800
 Vibration     6          0.602              1.955              3.624
 Vibration     7          0.603              1.953              3.558
 Vibration     8          0.605              1.947              3.396
 Vibration     9          0.607              1.940              3.253
 Vibration    10          0.608              1.937              3.175
 Vibration    11          0.609              1.933              3.103
 Vibration    12          0.611              1.927              3.000
 Vibration    13          0.614              1.916              2.835
 Vibration    14          0.615              1.913              2.798
 Vibration    15          0.619              1.899              2.627
 Vibration    16          0.621              1.894              2.578
 Vibration    17          0.623              1.888              2.517
 Vibration    18          0.623              1.887              2.511
 Vibration    19          0.625              1.880              2.437
 Vibration    20          0.629              1.867              2.328
 Vibration    21          0.634              1.853              2.221

 Normal termination of Gaussian 09 at Tue Mar  6 17:29:03 2018.
