 Gaussian 09, Revision D.01,
 Gaussian 09:  ES64L-G09RevD.01 24-Apr-2013

 ----------------------------------------------------------------------
 #p PBE1PBE/Def2TZVP scf=(maxcycle=768) opt=(cartesian,maxcycle=512) fr
 eq
 ----------------------------------------------------------------------

 ---------------------
 01Final_coords.xyz_53
 ---------------------
 Symbolic Z-matrix:
 Charge =  0 Multiplicity = 1

 SCF Done:  E(RPBE1PBE) =  -7517.80425495     A.U. after   18 cycles
 SCF Done:  E(RPBE1PBE) =  -7517.81008385     A.U. after   13 cycles
 SCF Done:  E(RPBE1PBE) =  -7517.81141215     A.U. after   12 cycles
 SCF Done:  E(RPBE1PBE) =  -7517.81156276     A.U. after   12 cycles
 SCF Done:  E(RPBE1PBE) =  -7517.81167173     A.U. after   12 cycles
 SCF Done:  E(RPBE1PBE) =  -7517.81171468     A.U. after   11 cycles
 SCF Done:  E(RPBE1PBE) =  -7517.81174110     A.U. after   10 cycles
 SCF Done:  E(RPBE1PBE) =  -7517.81207329     A.U. after   14 cycles
 SCF Done:  E(RPBE1PBE) =  -7517.81237724     A.U. after   13 cycles
 SCF Done:  E(RPBE1PBE) =  -7517.81254635     A.U. after   13 cycles
 SCF Done:  E(RPBE1PBE) =  -7517.81301058     A.U. after   13 cycles
 SCF Done:  E(RPBE1PBE) =  -7517.81352565     A.U. after   13 cycles
 SCF Done:  E(RPBE1PBE) =  -7517.81298819     A.U. after   13 cycles
 SCF Done:  E(RPBE1PBE) =  -7517.81360448     A.U. after   13 cycles
 SCF Done:  E(RPBE1PBE) =  -7517.81279028     A.U. after   13 cycles
 SCF Done:  E(RPBE1PBE) =  -7517.81366986     A.U. after   13 cycles
 SCF Done:  E(RPBE1PBE) =  -7517.81368904     A.U. after    5 cycles
 SCF Done:  E(RPBE1PBE) =  -7517.81372961     A.U. after   12 cycles
 SCF Done:  E(RPBE1PBE) =  -7517.81373236     A.U. after   10 cycles
 Optimization completed.
    -- Stationary point found.
 Normal termination of Gaussian 09 at Wed Mar  7 00:23:37 2018.

 ----------------------------------------------------------------------
 #P Geom=AllCheck Guess=TCheck SCRF=Check GenChk RPBE1PBE/def2TZVP Freq
 ----------------------------------------------------------------------

 Structure from the checkpoint file:  "Isomer_53.chk"
 ---------------------
 01Final_coords.xyz_53
 ---------------------
 Charge =  0 Multiplicity = 1

                         Standard orientation:
 ---------------------------------------------------------------------
 Center     Atomic      Atomic             Coordinates (Angstroms)
 Number     Number       Type             X           Y           Z
 ---------------------------------------------------------------------
      1         50           0       -2.464456   -0.002778    1.327742
      2         32           0       -0.357578   -0.001177   -2.297989
      3         32           0       -0.160294   -1.380584    2.003449
      4         83           0        1.548708    1.570597   -0.685901
      5         32           0       -0.164153    1.381478    2.002967
      6         83           0        1.552543   -1.567781   -0.685544
      7         50           0        2.250791    0.002950    1.801804
      8         83           0       -1.356824    2.050083   -0.586640
      9         83           0       -1.352763   -2.052893   -0.585854
 ---------------------------------------------------------------------

 SCF Done:  E(RPBE1PBE) =  -7517.81373236     A.U. after    1 cycles

 The electronic state is 1-A.
 Alpha  occ. eigenvalues -- -399.09625-399.09141-399.09140 -49.91245 -49.90774
 Alpha  occ. eigenvalues --  -49.90772 -44.39335 -44.39297 -44.39252 -44.38877
 Alpha  occ. eigenvalues --  -44.38875 -44.38810 -44.38808 -44.38785 -44.38783
 Alpha  occ. eigenvalues --   -6.27769  -6.27315  -6.27313  -6.02818  -6.02817
 Alpha  occ. eigenvalues --   -6.01253  -6.01253  -5.13460  -5.12887  -4.43252
 Alpha  occ. eigenvalues --   -4.43145  -4.42972  -4.42840  -4.42838  -4.42655
 Alpha  occ. eigenvalues --   -4.42653  -4.42538  -4.42534  -3.75073  -3.75065
 Alpha  occ. eigenvalues --   -3.74996  -3.74994  -3.74825  -3.74822  -3.73572
 Alpha  occ. eigenvalues --   -3.73572  -3.73451  -3.73451  -3.73160  -3.73159
 Alpha  occ. eigenvalues --   -3.46670  -3.46667  -3.46408  -3.46156  -3.45997
 Alpha  occ. eigenvalues --   -3.45881  -1.22730  -1.22723  -1.22539  -1.22501
 Alpha  occ. eigenvalues --   -1.22431  -1.22322  -1.22279  -1.22275  -1.22252
 Alpha  occ. eigenvalues --   -1.22239  -1.22084  -1.22062  -1.22060  -1.21962
 Alpha  occ. eigenvalues --   -1.21872  -1.09268  -1.08957  -1.08939  -1.08748
 Alpha  occ. eigenvalues --   -1.08717  -1.08667  -1.08578  -1.08510  -1.08402
 Alpha  occ. eigenvalues --   -1.08259  -1.07247  -1.07239  -1.07146  -1.07123
 Alpha  occ. eigenvalues --   -1.07016  -1.06998  -1.06870  -1.06849  -1.06802
 Alpha  occ. eigenvalues --   -1.06727  -1.02951  -1.02931  -1.02790  -1.02760
 Alpha  occ. eigenvalues --   -1.02660  -1.02339  -1.02339  -1.02326  -1.02148
 Alpha  occ. eigenvalues --   -1.02065  -0.68331  -0.63013  -0.59873  -0.55754
 Alpha  occ. eigenvalues --   -0.54760  -0.45575  -0.44815  -0.43649  -0.39323
 Alpha  occ. eigenvalues --   -0.29918  -0.28092  -0.27268  -0.25691  -0.25497
 Alpha  occ. eigenvalues --   -0.25124  -0.23801  -0.22595  -0.21954  -0.20956
 Alpha  occ. eigenvalues --   -0.20086
 Alpha virt. eigenvalues --   -0.07759  -0.07340  -0.06590  -0.06250  -0.05967
 Alpha virt. eigenvalues --   -0.05552  -0.05223  -0.04552  -0.03750  -0.02560
 Alpha virt. eigenvalues --   -0.02456  -0.01487  -0.00769   0.04797   0.05197

 Mulliken charges:
               1
     1  Sn   0.002019
     2  Ge  -0.139040
     3  Ge  -0.062235
     4  Bi   0.120923
     5  Ge  -0.062317
     6  Bi   0.120773
     7  Sn  -0.048861
     8  Bi   0.034324
     9  Bi   0.034416
 Sum of Mulliken charges =   0.00000

 Dipole moment (field-independent basis, Debye):
    X=              0.8103    Y=              0.0005    Z=             -1.1298  Tot=              1.3903
 Quadrupole moment (field-independent basis, Debye-Ang):
   XX=           -211.6087   YY=           -217.2490   ZZ=           -224.5398
   XY=              0.0022   XZ=              0.9351   YZ=              0.0043

  Exact polarizability: 400.481   0.027 369.444   3.366   0.016 365.108
 Approx polarizability:1274.863   0.0521140.779  23.020   0.1101146.523

                      1                      2                      3
                      A                      A                      A
 Frequencies --     33.2513                42.7159                79.4356
 Red. masses --    136.5887               139.6288               151.5374
 Frc consts  --      0.0890                 0.1501                 0.5634
 IR Inten    --      0.0700                 0.0780                 0.0327

                      4                      5                      6
                      A                      A                      A
 Frequencies --     80.8198                82.9958                97.9269
 Red. masses --    180.2959               126.8257               110.8882
 Frc consts  --      0.6939                 0.5147                 0.6265
 IR Inten    --      0.0044                 0.4364                 0.0267

                      7                      8                      9
                      A                      A                      A
 Frequencies --    102.6587               103.7920               110.0755
 Red. masses --    125.7979               132.3426               133.5439
 Frc consts  --      0.7811                 0.8400                 0.9534
 IR Inten    --      0.0163                 0.2164                 0.1132

                     10                     11                     12
                      A                      A                      A
 Frequencies --    115.9067               120.9556               121.6737
 Red. masses --    109.0413               144.4852               117.8762
 Frc consts  --      0.8631                 1.2454                 1.0282
 IR Inten    --      0.3706                 0.0286                 0.0682

                     13                     14                     15
                      A                      A                      A
 Frequencies --    128.0262               140.1320               141.6070
 Red. masses --    121.2618               122.3805               106.2072
 Frc consts  --      1.1710                 1.4159                 1.2548
 IR Inten    --      0.2509                 0.4605                 0.0405

                     16                     17                     18
                      A                      A                      A
 Frequencies --    143.0626               164.6745               168.2256
 Red. masses --     79.6314                94.3886                82.2357
 Frc consts  --      0.9603                 1.5081                 1.3712
 IR Inten    --      0.1865                 0.0586                 0.1162

                     19                     20                     21
                      A                      A                      A
 Frequencies --    179.9248               182.0426               196.9255
 Red. masses --     84.3073                82.4488                86.7194
 Frc consts  --      1.6080                 1.6098                 1.9814
 IR Inten    --      0.7992                 0.1369                 2.0390

 - Thermochemistry -
 -------------------
 Temperature   298.150 Kelvin.  Pressure   1.00000 Atm.
 Atom     1 has atomic number 50 and mass 117.90180

 Molecular mass:  1293.48874 amu.
 Principal axes and moments of inertia in atomic units:
                           1         2         3
     Eigenvalues --  ******************************
           X            0.99998   0.00258   0.00610
           Y           -0.00258   1.00000   0.00003
           Z           -0.00609  -0.00005   0.99998
 This molecule is an asymmetric top.
 Rotational symmetry number  1.
 Warning -- assumption of classical behavior for rotation
           may cause significant error
 Rotational temperatures (Kelvin)      0.00487     0.00484     0.00393
 Rotational constants (GHZ):           0.10141     0.10083     0.08192
 Zero-point vibrational energy      15173.6 (Joules/Mol)
                                    3.62658 (Kcal/Mol)
 Warning -- explicit consideration of  21 degrees of freedom as
           vibrations may cause significant error
 Vibrational temperatures:     47.84    61.46   114.29   116.28   119.41
          (Kelvin)            140.89   147.70   149.33   158.37   166.76
                              174.03   175.06   184.20   201.62   203.74
                              205.83   236.93   242.04   258.87   261.92
                              283.33

 Zero-point correction=                           0.005779 (Hartree/Particle)
 Thermal correction to Energy=                    0.023287
 Thermal correction to Enthalpy=                  0.024231
 Thermal correction to Gibbs Free Energy=        -0.048386
 Sum of electronic and zero-point Energies=          -7517.807953
 Sum of electronic and thermal Energies=             -7517.790446
 Sum of electronic and thermal Enthalpies=           -7517.789501
 Sum of electronic and thermal Free Energies=        -7517.862119

                     E (Thermal)             CV                S
                      KCal/Mol        Cal/Mol-Kelvin    Cal/Mol-Kelvin
 Total                   14.613             46.398            152.836
 Electronic               0.000              0.000              0.000
 Translational            0.889              2.981             47.349
 Rotational               0.889              2.981             37.193
 Vibrational             12.835             40.436             68.294
 Vibration     1          0.594              1.983              5.625
 Vibration     2          0.595              1.980              5.129
 Vibration     3          0.600              1.963              3.905
 Vibration     4          0.600              1.962              3.871
 Vibration     5          0.600              1.961              3.819
 Vibration     6          0.603              1.951              3.495
 Vibration     7          0.605              1.947              3.403
 Vibration     8          0.605              1.946              3.382
 Vibration     9          0.606              1.941              3.268
 Vibration    10          0.608              1.936              3.168
 Vibration    11          0.609              1.932              3.085
 Vibration    12          0.609              1.931              3.074
 Vibration    13          0.611              1.925              2.975
 Vibration    14          0.615              1.913              2.802
 Vibration    15          0.615              1.912              2.782
 Vibration    16          0.616              1.910              2.763
 Vibration    17          0.623              1.886              2.495
 Vibration    18          0.625              1.882              2.455
 Vibration    19          0.629              1.867              2.329
 Vibration    20          0.630              1.864              2.307
 Vibration    21          0.636              1.844              2.162

 Optimization completed.
    -- Stationary point found.
 Normal termination of Gaussian 09 at Wed Mar  7 01:37:16 2018.
