 Gaussian 09, Revision D.01,
 Gaussian 09:  ES64L-G09RevD.01 24-Apr-2013

 ----------------------------------------------------------------------
 #p PBE1PBE/Def2TZVP scf=(maxcycle=768) opt=(cartesian,maxcycle=512) fr
 eq
 ----------------------------------------------------------------------

 ---------------------
 01Final_coords.xyz_44
 ---------------------
 Symbolic Z-matrix:
 Charge =  0 Multiplicity = 1

 SCF Done:  E(RPBE1PBE) =  -7517.80963266     A.U. after   17 cycles
 SCF Done:  E(RPBE1PBE) =  -7517.81531323     A.U. after   13 cycles
 SCF Done:  E(RPBE1PBE) =  -7517.81670176     A.U. after   13 cycles
 SCF Done:  E(RPBE1PBE) =  -7517.81682285     A.U. after   11 cycles
 SCF Done:  E(RPBE1PBE) =  -7517.81688908     A.U. after   11 cycles
 SCF Done:  E(RPBE1PBE) =  -7517.81690299     A.U. after   10 cycles
 SCF Done:  E(RPBE1PBE) =  -7517.81690783     A.U. after    9 cycles
 SCF Done:  E(RPBE1PBE) =  -7517.81690972     A.U. after   10 cycles
 SCF Done:  E(RPBE1PBE) =  -7517.81690665     A.U. after   11 cycles
 SCF Done:  E(RPBE1PBE) =  -7517.81690991     A.U. after    4 cycles
 SCF Done:  E(RPBE1PBE) =  -7517.81691071     A.U. after    8 cycles
 SCF Done:  E(RPBE1PBE) =  -7517.81691075     A.U. after    9 cycles
 SCF Done:  E(RPBE1PBE) =  -7517.81691116     A.U. after    9 cycles
 Optimization completed.
    -- Stationary point found.
 Normal termination of Gaussian 09 at Tue Mar  6 18:18:43 2018.

 ----------------------------------------------------------------------
 #P Geom=AllCheck Guess=TCheck SCRF=Check GenChk RPBE1PBE/def2TZVP Freq
 ----------------------------------------------------------------------

 Structure from the checkpoint file:  "Isomer_44.chk"
 ---------------------
 01Final_coords.xyz_44
 ---------------------
 Charge =  0 Multiplicity = 1

                         Standard orientation:
 ---------------------------------------------------------------------
 Center     Atomic      Atomic             Coordinates (Angstroms)
 Number     Number       Type             X           Y           Z
 ---------------------------------------------------------------------
      1         83           0        2.033942   -1.585607    0.043929
      2         50           0       -1.794495    0.211229    1.865965
      3         83           0        1.779823    1.266491   -0.736293
      4         83           0       -1.334311    1.314086   -1.224667
      5         83           0       -1.874794   -1.557467   -0.612615
      6         32           0        1.119415    0.117663    2.190219
      7         50           0       -0.037507    2.525861    1.260094
      8         32           0        0.386452   -0.869773   -2.181298
      9         32           0       -0.211701   -2.065616    1.667880
 ---------------------------------------------------------------------

 SCF Done:  E(RPBE1PBE) =  -7517.81691116     A.U. after    2 cycles

 The electronic state is 1-A.
 Alpha  occ. eigenvalues -- -399.09711-399.09170-399.08564 -49.91338 -49.90798
 Alpha  occ. eigenvalues --  -49.90236 -44.39422 -44.39390 -44.39349 -44.38903
 Alpha  occ. eigenvalues --  -44.38833 -44.38808 -44.38312 -44.38285 -44.38251
 Alpha  occ. eigenvalues --   -6.27866  -6.27338  -6.26790  -6.02841  -6.02717
 Alpha  occ. eigenvalues --   -6.01444  -6.01370  -5.13444  -5.13285  -4.43332
 Alpha  occ. eigenvalues --   -4.43242  -4.43087  -4.42872  -4.42668  -4.42558
 Alpha  occ. eigenvalues --   -4.42264  -4.42150  -4.42055  -3.75103  -3.74999
 Alpha  occ. eigenvalues --   -3.74979  -3.74894  -3.74856  -3.74706  -3.73752
 Alpha  occ. eigenvalues --   -3.73702  -3.73642  -3.73548  -3.73375  -3.73284
 Alpha  occ. eigenvalues --   -3.46673  -3.46634  -3.46575  -3.46409  -3.46380
 Alpha  occ. eigenvalues --   -3.46242  -1.22810  -1.22808  -1.22639  -1.22617
 Alpha  occ. eigenvalues --   -1.22549  -1.22350  -1.22289  -1.22183  -1.22116
 Alpha  occ. eigenvalues --   -1.22024  -1.21735  -1.21699  -1.21602  -1.21499
 Alpha  occ. eigenvalues --   -1.21480  -1.09215  -1.08925  -1.08867  -1.08741
 Alpha  occ. eigenvalues --   -1.08669  -1.08612  -1.08547  -1.08453  -1.08340
 Alpha  occ. eigenvalues --   -1.08234  -1.07423  -1.07369  -1.07328  -1.07244
 Alpha  occ. eigenvalues --   -1.07212  -1.07109  -1.07064  -1.07001  -1.06966
 Alpha  occ. eigenvalues --   -1.06875  -1.03148  -1.02969  -1.02895  -1.02840
 Alpha  occ. eigenvalues --   -1.02743  -1.02714  -1.02658  -1.02545  -1.02375
 Alpha  occ. eigenvalues --   -1.02245  -0.68381  -0.62899  -0.60578  -0.55153
 Alpha  occ. eigenvalues --   -0.54913  -0.45574  -0.45447  -0.42860  -0.39763
 Alpha  occ. eigenvalues --   -0.29882  -0.28279  -0.27151  -0.25932  -0.25593
 Alpha  occ. eigenvalues --   -0.24991  -0.23756  -0.22836  -0.21843  -0.20983
 Alpha  occ. eigenvalues --   -0.20313
 Alpha virt. eigenvalues --   -0.07804  -0.07128  -0.06597  -0.06061  -0.05917
 Alpha virt. eigenvalues --   -0.05673  -0.05419  -0.04927  -0.03957  -0.02828
 Alpha virt. eigenvalues --   -0.02226  -0.01829  -0.00177   0.04922   0.05688

 Mulliken charges:
               1
     1  Bi   0.058273
     2  Sn   0.068095
     3  Bi   0.122152
     4  Bi   0.097288
     5  Bi   0.058742
     6  Ge  -0.065597
     7  Sn  -0.054797
     8  Ge  -0.148935
     9  Ge  -0.135222
 Sum of Mulliken charges =   0.00000

 Dipole moment (field-independent basis, Debye):
    X=             -0.0315    Y=              0.9443    Z=             -1.2740  Tot=              1.5861
 Quadrupole moment (field-independent basis, Debye-Ang):
   XX=           -215.4681   YY=           -215.1581   ZZ=           -223.7931
   XY=             -0.4303   XZ=             -0.7736   YZ=              0.8153

  Exact polarizability: 375.945  -0.092 388.554  -7.942   9.203 367.467
 Approx polarizability:1147.899   1.1171252.080 -23.870  28.4521164.716

                      1                      2                      3
                      A                      A                      A
 Frequencies --     34.0124                47.7113                77.6547
 Red. masses --    133.1689               142.9692               149.0858
 Frc consts  --      0.0908                 0.1917                 0.5297
 IR Inten    --      0.0179                 0.0543                 0.0912

                      4                      5                      6
                      A                      A                      A
 Frequencies --     82.1933                85.3044                93.8397
 Red. masses --    174.0562               145.2439               152.7975
 Frc consts  --      0.6928                 0.6227                 0.7928
 IR Inten    --      0.0197                 0.1826                 0.0972

                      7                      8                      9
                      A                      A                      A
 Frequencies --     98.6387               106.5360               113.6762
 Red. masses --    143.2229               118.2125               142.0610
 Frc consts  --      0.8210                 0.7905                 1.0816
 IR Inten    --      0.0284                 0.2915                 0.4175

                     10                     11                     12
                      A                      A                      A
 Frequencies --    116.4125               121.3346               124.2818
 Red. masses --     98.0552               134.6655               110.6135
 Frc consts  --      0.7829                 1.1681                 1.0066
 IR Inten    --      0.0792                 0.1366                 0.0598

                     13                     14                     15
                      A                      A                      A
 Frequencies --    130.7910               139.6766               142.0373
 Red. masses --    111.4818               100.8405               105.6700
 Frc consts  --      1.1236                 1.1591                 1.2561
 IR Inten    --      0.2450                 0.6789                 0.0556

                     16                     17                     18
                      A                      A                      A
 Frequencies --    152.7992               164.9672               167.9874
 Red. masses --     87.4325                90.7487                85.6693
 Frc consts  --      1.2027                 1.4551                 1.4244
 IR Inten    --      0.0828                 0.0860                 0.2444

                     19                     20                     21
                      A                      A                      A
 Frequencies --    172.5377               182.2261               200.9315
 Red. masses --     89.7179                87.0148                77.2086
 Frc consts  --      1.5736                 1.7024                 1.8366
 IR Inten    --      0.9818                 1.0489                 0.4395

 - Thermochemistry -
 -------------------
 Temperature   298.150 Kelvin.  Pressure   1.00000 Atm.
 Atom     1 has atomic number 83 and mass 208.98040

 Molecular mass:  1293.48874 amu.
 Principal axes and moments of inertia in atomic units:
                           1         2         3
     Eigenvalues --  ******************************
           X            0.99983  -0.00688  -0.01717
           Y            0.00729   0.99969   0.02381
           Z            0.01700  -0.02393   0.99957
 This molecule is an asymmetric top.
 Rotational symmetry number  1.
 Warning -- assumption of classical behavior for rotation
           may cause significant error
 Rotational temperatures (Kelvin)      0.00498     0.00472     0.00406
 Rotational constants (GHZ):           0.10373     0.09844     0.08453
 Zero-point vibrational energy      15285.6 (Joules/Mol)
                                    3.65334 (Kcal/Mol)
 Warning -- explicit consideration of  21 degrees of freedom as
           vibrations may cause significant error
 Vibrational temperatures:     48.94    68.65   111.73   118.26   122.73
          (Kelvin)            135.01   141.92   153.28   163.55   167.49
                              174.57   178.81   188.18   200.96   204.36
                              219.84   237.35   241.70   248.24   262.18
                              289.10

 Zero-point correction=                           0.005822 (Hartree/Particle)
 Thermal correction to Energy=                    0.023294
 Thermal correction to Enthalpy=                  0.024238
 Thermal correction to Gibbs Free Energy=        -0.048155
 Sum of electronic and zero-point Energies=          -7517.811089
 Sum of electronic and thermal Energies=             -7517.793617
 Sum of electronic and thermal Enthalpies=           -7517.792673
 Sum of electronic and thermal Free Energies=        -7517.865066

                     E (Thermal)             CV                S
                      KCal/Mol        Cal/Mol-Kelvin    Cal/Mol-Kelvin
 Total                   14.617             46.382            152.365
 Electronic               0.000              0.000              0.000
 Translational            0.889              2.981             47.349
 Rotational               0.889              2.981             37.163
 Vibrational             12.840             40.421             67.853
 Vibration     1          0.594              1.983              5.580
 Vibration     2          0.595              1.978              4.910
 Vibration     3          0.599              1.964              3.949
 Vibration     4          0.600              1.961              3.838
 Vibration     5          0.601              1.959              3.765
 Vibration     6          0.603              1.954              3.578
 Vibration     7          0.604              1.950              3.481
 Vibration     8          0.605              1.944              3.331
 Vibration     9          0.607              1.938              3.205
 Vibration    10          0.608              1.936              3.159
 Vibration    11          0.609              1.931              3.079
 Vibration    12          0.610              1.929              3.033
 Vibration    13          0.612              1.923              2.934
 Vibration    14          0.615              1.914              2.808
 Vibration    15          0.616              1.911              2.776
 Vibration    16          0.619              1.900              2.637
 Vibration    17          0.623              1.886              2.492
 Vibration    18          0.625              1.882              2.458
 Vibration    19          0.626              1.876              2.408
 Vibration    20          0.630              1.864              2.305
 Vibration    21          0.638              1.839              2.125

 Normal termination of Gaussian 09 at Tue Mar  6 19:31:48 2018.
