 Gaussian 09, Revision D.01,
 Gaussian 09:  ES64L-G09RevD.01 24-Apr-2013

 ----------------------------------------------------------------------
 #p PBE1PBE/Def2TZVP scf=(maxcycle=768) opt=(cartesian,maxcycle=512) fr
 eq
 ----------------------------------------------------------------------

 ---------------------
 01Final_coords.xyz_08
 ---------------------
 Symbolic Z-matrix:
 Charge =  0 Multiplicity = 1

 SCF Done:  E(RPBE1PBE) =  -7517.81531166     A.U. after   16 cycles
 SCF Done:  E(RPBE1PBE) =  -7517.82108270     A.U. after   13 cycles
 SCF Done:  E(RPBE1PBE) =  -7517.82226688     A.U. after   12 cycles
 SCF Done:  E(RPBE1PBE) =  -7517.82242828     A.U. after   12 cycles
 SCF Done:  E(RPBE1PBE) =  -7517.82249466     A.U. after   11 cycles
 SCF Done:  E(RPBE1PBE) =  -7517.82250995     A.U. after    9 cycles
 SCF Done:  E(RPBE1PBE) =  -7517.82251301     A.U. after    9 cycles
 SCF Done:  E(RPBE1PBE) =  -7517.82251375     A.U. after    8 cycles
 Optimization completed.
    -- Stationary point found.
 Normal termination of Gaussian 09 at Thu Mar  8 13:02:51 2018.

 ----------------------------------------------------------------------
 #P Geom=AllCheck Guess=TCheck SCRF=Check GenChk RPBE1PBE/def2TZVP Freq
 ----------------------------------------------------------------------

 Structure from the checkpoint file:  "Isomer_08.chk"
 ---------------------
 01Final_coords.xyz_08
 ---------------------
 Charge =  0 Multiplicity = 1

                         Standard orientation:
 ---------------------------------------------------------------------
 Center     Atomic      Atomic             Coordinates (Angstroms)
 Number     Number       Type             X           Y           Z
 ---------------------------------------------------------------------
      1         83           0        2.635970   -0.700949   -0.636227
      2         32           0        0.788023    0.872768   -2.048867
      3         83           0       -0.856265    2.306227   -0.213309
      4         32           0        0.308480   -2.063895   -1.233868
      5         83           0       -1.799491   -0.196603   -1.578768
      6         83           0       -1.462131   -1.838016    0.948470
      7         32           0        1.185291   -1.259514    1.724768
      8         50           0       -0.755452    0.710599    2.400317
      9         50           0        1.755084    1.570520    1.053307
 ---------------------------------------------------------------------

 SCF Done:  E(RPBE1PBE) =  -7517.82251375     A.U. after    1 cycles

 The electronic state is 1-A.
 Alpha  occ. eigenvalues -- -399.10450-399.10325-399.09525 -49.92055 -49.91920
 Alpha  occ. eigenvalues --  -49.91147 -44.40132 -44.40097 -44.40090 -44.39997
 Alpha  occ. eigenvalues --  -44.39966 -44.39954 -44.39230 -44.39199 -44.39164
 Alpha  occ. eigenvalues --   -6.28590  -6.28446  -6.27681  -6.02315  -6.01745
 Alpha  occ. eigenvalues --   -6.01374  -6.01205  -5.13518  -5.12709  -4.44020
 Alpha  occ. eigenvalues --   -4.43931  -4.43885  -4.43873  -4.43794  -4.43731
 Alpha  occ. eigenvalues --   -4.43138  -4.43065  -4.42919  -3.74598  -3.74405
 Alpha  occ. eigenvalues --   -3.74375  -3.73971  -3.73934  -3.73766  -3.73708
 Alpha  occ. eigenvalues --   -3.73543  -3.73468  -3.73370  -3.73310  -3.73172
 Alpha  occ. eigenvalues --   -3.46748  -3.46678  -3.46492  -3.45938  -3.45839
 Alpha  occ. eigenvalues --   -3.45705  -1.23492  -1.23465  -1.23415  -1.23392
 Alpha  occ. eigenvalues --   -1.23340  -1.23327  -1.23301  -1.23232  -1.23220
 Alpha  occ. eigenvalues --   -1.23172  -1.22634  -1.22594  -1.22466  -1.22431
 Alpha  occ. eigenvalues --   -1.22388  -1.08641  -1.08347  -1.08284  -1.08126
 Alpha  occ. eigenvalues --   -1.07987  -1.07745  -1.07679  -1.07621  -1.07595
 Alpha  occ. eigenvalues --   -1.07414  -1.07332  -1.07245  -1.07191  -1.07166
 Alpha  occ. eigenvalues --   -1.07050  -1.07023  -1.06950  -1.06892  -1.06838
 Alpha  occ. eigenvalues --   -1.06757  -1.03049  -1.02964  -1.02906  -1.02833
 Alpha  occ. eigenvalues --   -1.02724  -1.02113  -1.02105  -1.02029  -1.01865
 Alpha  occ. eigenvalues --   -1.01834  -0.67816  -0.62712  -0.61321  -0.57969
 Alpha  occ. eigenvalues --   -0.49596  -0.46320  -0.45870  -0.42700  -0.41033
 Alpha  occ. eigenvalues --   -0.29496  -0.27860  -0.26980  -0.25924  -0.25690
 Alpha  occ. eigenvalues --   -0.25035  -0.23488  -0.23397  -0.21956  -0.21431
 Alpha  occ. eigenvalues --   -0.20295
 Alpha virt. eigenvalues --   -0.07753  -0.07436  -0.06368  -0.05781  -0.04841
 Alpha virt. eigenvalues --   -0.04682  -0.04612  -0.04384  -0.03639  -0.03316
 Alpha virt. eigenvalues --   -0.02933  -0.02310  -0.01952   0.04600   0.05272

 Mulliken charges:
               1
     1  Bi   0.020383
     2  Ge  -0.045456
     3  Bi  -0.005267
     4  Ge  -0.023940
     5  Bi   0.060036
     6  Bi   0.021135
     7  Ge  -0.078294
     8  Sn  -0.002597
     9  Sn   0.054000
 Sum of Mulliken charges =   0.00000

 Dipole moment (field-independent basis, Debye):
    X=             -0.6229    Y=              0.1500    Z=             -0.6022  Tot=              0.8793
 Quadrupole moment (field-independent basis, Debye-Ang):
   XX=           -211.8257   YY=           -219.2589   ZZ=           -222.3493
   XY=              0.2583   XZ=              0.1821   YZ=              0.6456

  Exact polarizability: 383.259   3.602 376.808  -2.762   8.226 375.916
 Approx polarizability:1188.022   0.1581164.429 -19.536  26.4591164.629

                      1                      2                      3
                      A                      A                      A
 Frequencies --     21.2763                45.8460                69.1229
 Red. masses --    144.9979               125.0238               134.0912
 Frc consts  --      0.0387                 0.1548                 0.3775
 IR Inten    --      0.0623                 0.1255                 0.0633

                      4                      5                      6
                      A                      A                      A
 Frequencies --     75.6644                88.7103                97.7061
 Red. masses --    149.9368               148.5384               131.1191
 Frc consts  --      0.5058                 0.6887                 0.7375
 IR Inten    --      0.0816                 0.0773                 0.0723

                      7                      8                      9
                      A                      A                      A
 Frequencies --    106.5455               109.5316               112.9619
 Red. masses --    128.8922               130.2167               125.7777
 Frc consts  --      0.8621                 0.9204                 0.9456
 IR Inten    --      0.0866                 0.1677                 0.0657

                     10                     11                     12
                      A                      A                      A
 Frequencies --    114.8242               119.4293               122.3004
 Red. masses --    141.1340               112.5295               119.0087
 Frc consts  --      1.0963                 0.9457                 1.0488
 IR Inten    --      0.2188                 0.1930                 0.1888

                     13                     14                     15
                      A                      A                      A
 Frequencies --    129.7525               140.7852               151.1640
 Red. masses --    112.5443               100.9287                89.9403
 Frc consts  --      1.1164                 1.1786                 1.2109
 IR Inten    --      0.3153                 0.0199                 0.0567

                     16                     17                     18
                      A                      A                      A
 Frequencies --    154.8085               159.9569               163.6971
 Red. masses --    103.7938                86.0882                86.6649
 Frc consts  --      1.4656                 1.2978                 1.3683
 IR Inten    --      0.5074                 0.3161                 0.0156

                     19                     20                     21
                      A                      A                      A
 Frequencies --    177.6252               178.7673               194.7119
 Red. masses --     83.7771                87.3276                88.7414
 Frc consts  --      1.5573                 1.6443                 1.9823
 IR Inten    --      0.3501                 0.2717                 0.3144

 - Thermochemistry -
 -------------------
 Temperature   298.150 Kelvin.  Pressure   1.00000 Atm.
 Atom     1 has atomic number 83 and mass 208.98040

 Molecular mass:  1293.48874 amu.
 Principal axes and moments of inertia in atomic units:
                           1         2         3
     Eigenvalues --  ******************************
           X            0.99989   0.01486   0.00113
           Y           -0.01489   0.99931   0.03411
           Z           -0.00062  -0.03413   0.99942
 This molecule is an asymmetric top.
 Rotational symmetry number  1.
 Warning -- assumption of classical behavior for rotation
           may cause significant error
 Rotational temperatures (Kelvin)      0.00483     0.00435     0.00399
 Rotational constants (GHZ):           0.10062     0.09072     0.08308
 Zero-point vibrational energy      15163.8 (Joules/Mol)
                                    3.62423 (Kcal/Mol)
 Warning -- explicit consideration of  21 degrees of freedom as
           vibrations may cause significant error
 Vibrational temperatures:     30.61    65.96    99.45   108.86   127.63
          (Kelvin)            140.58   153.30   157.59   162.53   165.21
                              171.83   175.96   186.68   202.56   217.49
                              222.73   230.14   235.52   255.56   257.21
                              280.15

 Zero-point correction=                           0.005776 (Hartree/Particle)
 Thermal correction to Energy=                    0.023289
 Thermal correction to Enthalpy=                  0.024234
 Thermal correction to Gibbs Free Energy=        -0.048765
 Sum of electronic and zero-point Energies=          -7517.816738
 Sum of electronic and thermal Energies=             -7517.799224
 Sum of electronic and thermal Enthalpies=           -7517.798280
 Sum of electronic and thermal Free Energies=        -7517.871279

                     E (Thermal)             CV                S
                      KCal/Mol        Cal/Mol-Kelvin    Cal/Mol-Kelvin
 Total                   14.614             46.392            153.638
 Electronic               0.000              0.000              0.000
 Translational            0.889              2.981             47.349
 Rotational               0.889              2.981             37.292
 Vibrational             12.837             40.430             68.998
 Vibration     1          0.593              1.985              6.511
 Vibration     2          0.595              1.979              4.989
 Vibration     3          0.598              1.969              4.178
 Vibration     4          0.599              1.965              4.000
 Vibration     5          0.602              1.957              3.688
 Vibration     6          0.603              1.951              3.500
 Vibration     7          0.605              1.944              3.331
 Vibration     8          0.606              1.942              3.277
 Vibration     9          0.607              1.939              3.217
 Vibration    10          0.608              1.937              3.186
 Vibration    11          0.609              1.933              3.110
 Vibration    12          0.610              1.931              3.064
 Vibration    13          0.612              1.924              2.950
 Vibration    14          0.615              1.913              2.793
 Vibration    15          0.619              1.901              2.658
 Vibration    16          0.620              1.897              2.612
 Vibration    17          0.622              1.891              2.550
 Vibration    18          0.623              1.887              2.507
 Vibration    19          0.628              1.870              2.353
 Vibration    20          0.629              1.868              2.341
 Vibration    21          0.635              1.847              2.183

 Normal termination of Gaussian 09 at Thu Mar  8 14:09:40 2018.
