 Gaussian 09, Revision D.01,
 Gaussian 09:  ES64L-G09RevD.01 24-Apr-2013

 ----------------------------------------------------------------------
 #p PBE1PBE/Def2TZVP scf=(maxcycle=768) opt=(cartesian,maxcycle=512) fr
 eq
 ----------------------------------------------------------------------

 ---------------------
 01Final_coords.xyz_25
 ---------------------
 Symbolic Z-matrix:
 Charge =  0 Multiplicity = 1

 SCF Done:  E(RPBE1PBE) =  -7517.81569531     A.U. after   17 cycles
 SCF Done:  E(RPBE1PBE) =  -7517.82199505     A.U. after   13 cycles
 SCF Done:  E(RPBE1PBE) =  -7517.82361695     A.U. after   13 cycles
 SCF Done:  E(RPBE1PBE) =  -7517.82372229     A.U. after   11 cycles
 SCF Done:  E(RPBE1PBE) =  -7517.82377254     A.U. after   11 cycles
 SCF Done:  E(RPBE1PBE) =  -7517.82379902     A.U. after   11 cycles
 SCF Done:  E(RPBE1PBE) =  -7517.82380182     A.U. after    9 cycles
 SCF Done:  E(RPBE1PBE) =  -7517.82380351     A.U. after    9 cycles
 SCF Done:  E(RPBE1PBE) =  -7517.82380436     A.U. after   10 cycles
 SCF Done:  E(RPBE1PBE) =  -7517.82380537     A.U. after    9 cycles
 Optimization completed.
    -- Stationary point found.
 Normal termination of Gaussian 09 at Tue Mar  6 14:28:37 2018.

 ----------------------------------------------------------------------
 #P Geom=AllCheck Guess=TCheck SCRF=Check GenChk RPBE1PBE/def2TZVP Freq
 ----------------------------------------------------------------------

 Structure from the checkpoint file:  "Isomer_25.chk"
 ---------------------
 01Final_coords.xyz_25
 ---------------------
 Charge =  0 Multiplicity = 1

                         Standard orientation:
 ---------------------------------------------------------------------
 Center     Atomic      Atomic             Coordinates (Angstroms)
 Number     Number       Type             X           Y           Z
 ---------------------------------------------------------------------
      1         32           0        0.555856    1.883388    1.646596
      2         83           0        0.626775   -1.853285   -1.067334
      3         50           0       -2.167164    1.596338    0.697467
      4         83           0        1.718854   -0.743908    1.542791
      5         32           0       -0.133307    2.794136   -0.759132
      6         83           0       -2.079733   -1.333632    0.092908
      7         50           0       -1.114121    0.501737   -2.134079
      8         83           0        1.884391    0.936148   -0.994698
      9         32           0       -0.872851   -0.188325    2.463043
 ---------------------------------------------------------------------

 SCF Done:  E(RPBE1PBE) =  -7517.82380537     A.U. after    1 cycles

 The electronic state is 1-A.
 Alpha  occ. eigenvalues -- -399.09277-399.08810-399.08384 -49.90906 -49.90495
 Alpha  occ. eigenvalues --  -49.90041 -44.39020 -44.38935 -44.38915 -44.38562
 Alpha  occ. eigenvalues --  -44.38551 -44.38502 -44.38116 -44.38088 -44.38062
 Alpha  occ. eigenvalues --   -6.27453  -6.27048  -6.26586  -6.03078  -6.02704
 Alpha  occ. eigenvalues --   -6.02050  -6.01307  -5.13819  -5.12983  -4.43017
 Alpha  occ. eigenvalues --   -4.42758  -4.42668  -4.42500  -4.42446  -4.42287
 Alpha  occ. eigenvalues --   -4.42050  -4.41934  -4.41861  -3.75366  -3.75275
 Alpha  occ. eigenvalues --   -3.75034  -3.74962  -3.74846  -3.74720  -3.74369
 Alpha  occ. eigenvalues --   -3.74251  -3.73962  -3.73656  -3.73411  -3.73268
 Alpha  occ. eigenvalues --   -3.47129  -3.46938  -3.46744  -3.46247  -3.46123
 Alpha  occ. eigenvalues --   -3.45957  -1.22502  -1.22426  -1.22321  -1.22242
 Alpha  occ. eigenvalues --   -1.22145  -1.21999  -1.21951  -1.21864  -1.21753
 Alpha  occ. eigenvalues --   -1.21751  -1.21513  -1.21485  -1.21418  -1.21310
 Alpha  occ. eigenvalues --   -1.21293  -1.09444  -1.09311  -1.08994  -1.08913
 Alpha  occ. eigenvalues --   -1.08796  -1.08757  -1.08615  -1.08468  -1.08410
 Alpha  occ. eigenvalues --   -1.08304  -1.07941  -1.07843  -1.07643  -1.07632
 Alpha  occ. eigenvalues --   -1.07563  -1.07306  -1.07169  -1.07030  -1.06922
 Alpha  occ. eigenvalues --   -1.06857  -1.03335  -1.03297  -1.03143  -1.03009
 Alpha  occ. eigenvalues --   -1.02987  -1.02485  -1.02449  -1.02342  -1.02246
 Alpha  occ. eigenvalues --   -1.02166  -0.68616  -0.62116  -0.59658  -0.59058
 Alpha  occ. eigenvalues --   -0.52752  -0.47997  -0.44112  -0.41542  -0.40184
 Alpha  occ. eigenvalues --   -0.30207  -0.28058  -0.27107  -0.26167  -0.25877
 Alpha  occ. eigenvalues --   -0.24988  -0.23260  -0.22698  -0.21965  -0.21577
 Alpha  occ. eigenvalues --   -0.20342
 Alpha virt. eigenvalues --   -0.07799  -0.07280  -0.07068  -0.06875  -0.05942
 Alpha virt. eigenvalues --   -0.05364  -0.05005  -0.04376  -0.03893  -0.02309
 Alpha virt. eigenvalues --   -0.01781  -0.01594  -0.00995   0.04949   0.05635

 Mulliken charges:
               1
     1  Ge  -0.036639
     2  Bi   0.008851
     3  Sn   0.077645
     4  Bi   0.049772
     5  Ge  -0.175682
     6  Bi   0.025401
     7  Sn   0.052837
     8  Bi   0.128637
     9  Ge  -0.130823
 Sum of Mulliken charges =   0.00000

 Dipole moment (field-independent basis, Debye):
    X=              1.1611    Y=             -1.8640    Z=             -1.3652  Tot=              2.5858
 Quadrupole moment (field-independent basis, Debye-Ang):
   XX=           -214.5687   YY=           -218.8468   ZZ=           -222.4846
   XY=             -1.0405   XZ=             -0.0620   YZ=             -0.6974

  Exact polarizability: 381.335  -8.315 376.120   1.161  -0.570 371.701
 Approx polarizability:1154.818 -27.7861211.876  -6.728 -19.8931153.605

                      1                      2                      3
                      A                      A                      A
 Frequencies --     41.1529                67.4269                76.3904
 Red. masses --    157.0615               117.5873               171.4395
 Frc consts  --      0.1567                 0.3150                 0.5894
 IR Inten    --      0.0107                 0.0576                 0.0227

                      4                      5                      6
                      A                      A                      A
 Frequencies --     81.9216                90.8720                93.3185
 Red. masses --    137.8707               146.0420               168.7308
 Frc consts  --      0.5452                 0.7105                 0.8657
 IR Inten    --      0.0956                 0.0828                 0.0369

                      7                      8                      9
                      A                      A                      A
 Frequencies --     99.5277               103.3650               106.6923
 Red. masses --    164.1151               140.1686               111.0313
 Frc consts  --      0.9578                 0.8824                 0.7447
 IR Inten    --      0.0888                 0.1718                 0.0314

                     10                     11                     12
                      A                      A                      A
 Frequencies --    115.0102               118.1715               124.9937
 Red. masses --    131.9909               105.0444               117.7976
 Frc consts  --      1.0286                 0.8643                 1.0843
 IR Inten    --      0.1302                 0.4729                 0.1259

                     13                     14                     15
                      A                      A                      A
 Frequencies --    135.3353               138.8668               146.4053
 Red. masses --    147.4927               120.5478               101.7488
 Frc consts  --      1.5916                 1.3696                 1.2850
 IR Inten    --      0.1902                 0.5323                 0.1003

                     16                     17                     18
                      A                      A                      A
 Frequencies --    151.7124               159.4666               174.5251
 Red. masses --     80.6965                79.5936                86.6194
 Frc consts  --      1.0943                 1.1925                 1.5545
 IR Inten    --      0.2491                 0.5652                 0.9198

                     19                     20                     21
                      A                      A                      A
 Frequencies --    181.4645               186.7571               197.3081
 Red. masses --     86.6327                78.9926                78.3023
 Frc consts  --      1.6808                 1.6233                 1.7960
 IR Inten    --      0.0768                 0.4902                 0.5405

 - Thermochemistry -
 -------------------
 Temperature   298.150 Kelvin.  Pressure   1.00000 Atm.
 Atom     1 has atomic number 32 and mass  73.92118

 Molecular mass:  1293.48874 amu.
 Principal axes and moments of inertia in atomic units:
                           1         2         3
     Eigenvalues --  ******************************
           X            0.99882  -0.04848  -0.00135
           Y            0.04849   0.99874   0.01277
           Z            0.00073  -0.01282   0.99992
 This molecule is an asymmetric top.
 Rotational symmetry number  1.
 Warning -- assumption of classical behavior for rotation
           may cause significant error
 Rotational temperatures (Kelvin)      0.00507     0.00453     0.00427
 Rotational constants (GHZ):           0.10557     0.09435     0.08891
 Zero-point vibrational energy      15495.7 (Joules/Mol)
                                    3.70357 (Kcal/Mol)
 Warning -- explicit consideration of  21 degrees of freedom as
           vibrations may cause significant error
 Vibrational temperatures:     59.21    97.01   109.91   117.87   130.74
          (Kelvin)            134.26   143.20   148.72   153.51   165.47
                              170.02   179.84   194.72   199.80   210.64
                              218.28   229.44   251.10   261.09   268.70
                              283.88

 Zero-point correction=                           0.005902 (Hartree/Particle)
 Thermal correction to Energy=                    0.023306
 Thermal correction to Enthalpy=                  0.024250
 Thermal correction to Gibbs Free Energy=        -0.047600
 Sum of electronic and zero-point Energies=          -7517.817903
 Sum of electronic and thermal Energies=             -7517.800500
 Sum of electronic and thermal Enthalpies=           -7517.799556
 Sum of electronic and thermal Free Energies=        -7517.871405

                     E (Thermal)             CV                S
                      KCal/Mol        Cal/Mol-Kelvin    Cal/Mol-Kelvin
 Total                   14.624             46.359            151.219
 Electronic               0.000              0.000              0.000
 Translational            0.889              2.981             47.349
 Rotational               0.889              2.981             37.138
 Vibrational             12.847             40.398             66.733
 Vibration     1          0.594              1.981              5.203
 Vibration     2          0.598              1.970              4.227
 Vibration     3          0.599              1.965              3.982
 Vibration     4          0.600              1.962              3.844
 Vibration     5          0.602              1.956              3.641
 Vibration     6          0.602              1.954              3.589
 Vibration     7          0.604              1.949              3.464
 Vibration     8          0.605              1.947              3.390
 Vibration     9          0.606              1.944              3.328
 Vibration    10          0.608              1.937              3.183
 Vibration    11          0.608              1.934              3.130
 Vibration    12          0.610              1.928              3.022
 Vibration    13          0.613              1.918              2.869
 Vibration    14          0.614              1.914              2.819
 Vibration    15          0.617              1.907              2.718
 Vibration    16          0.619              1.901              2.651
 Vibration    17          0.621              1.892              2.556
 Vibration    18          0.627              1.874              2.386
 Vibration    19          0.630              1.865              2.313
 Vibration    20          0.632              1.858              2.260
 Vibration    21          0.637              1.844              2.158

 Normal termination of Gaussian 09 at Tue Mar  6 15:43:41 2018.
