 Gaussian 09, Revision D.01,
 Gaussian 09:  ES64L-G09RevD.01 24-Apr-2013

 ----------------------------------------------------------------------
 #p PBE1PBE/Def2TZVP scf=(maxcycle=768) opt=(cartesian,maxcycle=512) fr
 eq
 ----------------------------------------------------------------------

 ---------------------
 01Final_coords.xyz_02
 ---------------------
 Symbolic Z-matrix:
 Charge =  0 Multiplicity = 1

 SCF Done:  E(RPBE1PBE) =  -7517.82557257     A.U. after   17 cycles
 SCF Done:  E(RPBE1PBE) =  -7517.83226374     A.U. after   12 cycles
 SCF Done:  E(RPBE1PBE) =  -7517.83398657     A.U. after   12 cycles
 SCF Done:  E(RPBE1PBE) =  -7517.83409481     A.U. after   10 cycles
 SCF Done:  E(RPBE1PBE) =  -7517.83415082     A.U. after   10 cycles
 SCF Done:  E(RPBE1PBE) =  -7517.83417422     A.U. after   10 cycles
 SCF Done:  E(RPBE1PBE) =  -7517.83417644     A.U. after    9 cycles
 Optimization completed.
    -- Stationary point found.
 Normal termination of Gaussian 09 at Tue Mar  6 13:45:39 2018.

 ----------------------------------------------------------------------
 #P Geom=AllCheck Guess=TCheck SCRF=Check GenChk RPBE1PBE/def2TZVP Freq
 ----------------------------------------------------------------------

 Structure from the checkpoint file:  "Isomer_02.chk"
 ---------------------
 01Final_coords.xyz_02
 ---------------------
 Charge =  0 Multiplicity = 1

                         Standard orientation:
 ---------------------------------------------------------------------
 Center     Atomic      Atomic             Coordinates (Angstroms)
 Number     Number       Type             X           Y           Z
 ---------------------------------------------------------------------
      1         32           0        0.899279    1.437455    1.901917
      2         32           0       -0.995299    0.000241    2.885431
      3         32           0        0.898405   -1.438112    1.901909
      4         50           0       -1.931486    1.596163    0.800171
      5         50           0       -1.932758   -1.594780    0.800027
      6         83           0       -1.442911    0.000564   -1.769830
      7         83           0        0.507066    2.135680   -0.885385
      8         83           0        0.505450   -2.135996   -0.885442
      9         83           0        2.448900   -0.000921   -0.002309
 ---------------------------------------------------------------------

 SCF Done:  E(RPBE1PBE) =  -7517.83417644     A.U. after    1 cycles

 The electronic state is 1-A.
 Alpha  occ. eigenvalues -- -399.09600-399.09599-399.08221 -49.91228 -49.91227
 Alpha  occ. eigenvalues --  -49.89928 -44.39310 -44.39310 -44.39297 -44.39297
 Alpha  occ. eigenvalues --  -44.39225 -44.39225 -44.37987 -44.37987 -44.37936
 Alpha  occ. eigenvalues --   -6.27772  -6.27771  -6.26494  -6.02184  -6.01996
 Alpha  occ. eigenvalues --   -6.01996  -6.01846  -5.13483  -5.13482  -4.43232
 Alpha  occ. eigenvalues --   -4.43231  -4.43198  -4.43198  -4.42967  -4.42966
 Alpha  occ. eigenvalues --   -4.41919  -4.41919  -4.41745  -3.74480  -3.74287
 Alpha  occ. eigenvalues --   -3.74286  -3.74261  -3.74245  -3.74127  -3.74069
 Alpha  occ. eigenvalues --   -3.74068  -3.74054  -3.74053  -3.73913  -3.73906
 Alpha  occ. eigenvalues --   -3.46715  -3.46711  -3.46679  -3.46679  -3.46421
 Alpha  occ. eigenvalues --   -3.46416  -1.22799  -1.22769  -1.22725  -1.22702
 Alpha  occ. eigenvalues --   -1.22637  -1.22564  -1.22560  -1.22519  -1.22475
 Alpha  occ. eigenvalues --   -1.22423  -1.21422  -1.21398  -1.21278  -1.21265
 Alpha  occ. eigenvalues --   -1.21207  -1.08807  -1.08408  -1.08341  -1.08281
 Alpha  occ. eigenvalues --   -1.08233  -1.08070  -1.08026  -1.07989  -1.07873
 Alpha  occ. eigenvalues --   -1.07822  -1.07800  -1.07658  -1.07559  -1.07543
 Alpha  occ. eigenvalues --   -1.07496  -1.07401  -1.07384  -1.07328  -1.07260
 Alpha  occ. eigenvalues --   -1.07041  -1.03074  -1.03025  -1.02926  -1.02919
 Alpha  occ. eigenvalues --   -1.02897  -1.02814  -1.02733  -1.02675  -1.02626
 Alpha  occ. eigenvalues --   -1.02512  -0.68199  -0.61503  -0.61423  -0.57456
 Alpha  occ. eigenvalues --   -0.53780  -0.46194  -0.45833  -0.41230  -0.40662
 Alpha  occ. eigenvalues --   -0.29888  -0.27661  -0.26679  -0.26386  -0.26122
 Alpha  occ. eigenvalues --   -0.23987  -0.23673  -0.23665  -0.22322  -0.20998
 Alpha  occ. eigenvalues --   -0.20992
 Alpha virt. eigenvalues --   -0.07679  -0.07634  -0.06225  -0.06104  -0.05001
 Alpha virt. eigenvalues --   -0.04726  -0.04652  -0.03981  -0.03823  -0.03808
 Alpha virt. eigenvalues --   -0.03482  -0.01984  -0.00729   0.04670   0.05757

 Mulliken charges:
               1
     1  Ge  -0.037647
     2  Ge  -0.133308
     3  Ge  -0.037650
     4  Sn   0.063117
     5  Sn   0.063138
     6  Bi  -0.001902
     7  Bi   0.020380
     8  Bi   0.020368
     9  Bi   0.043506
 Sum of Mulliken charges =   0.00000

 Dipole moment (field-independent basis, Debye):
    X=              0.5039    Y=             -0.0002    Z=             -2.4760  Tot=              2.5268
 Quadrupole moment (field-independent basis, Debye-Ang):
   XX=           -215.7756   YY=           -217.6006   ZZ=           -222.3139
   XY=             -0.0002   XZ=             -0.9843   YZ=             -0.0004

  Exact polarizability: 382.744   0.000 378.215  -7.061   0.001 368.997
 Approx polarizability:1169.923   0.0061149.274 -36.394  -0.0101182.573

                      1                      2                      3
                      A                      A                      A
 Frequencies --     48.0764                76.8610                79.9131
 Red. masses --    194.6702               118.8056               128.5846
 Frc consts  --      0.2651                 0.4135                 0.4838
 IR Inten    --      0.0034                 0.0383                 0.0153

                      4                      5                      6
                      A                      A                      A
 Frequencies --     84.7030                90.6289                99.7365
 Red. masses --    155.6417               148.1319               122.1147
 Frc consts  --      0.6579                 0.7169                 0.7157
 IR Inten    --      0.0117                 0.1218                 0.0924

                      7                      8                      9
                      A                      A                      A
 Frequencies --    104.2587               107.5612               108.7316
 Red. masses --    140.4870               156.8213                98.2491
 Frc consts  --      0.8997                 1.0690                 0.6844
 IR Inten    --      0.0690                 0.1195                 0.0033

                     10                     11                     12
                      A                      A                      A
 Frequencies --    109.2230               112.0871               126.2821
 Red. masses --    157.7277               167.4836                96.1699
 Frc consts  --      1.1086                 1.2397                 0.9036
 IR Inten    --      0.0110                 0.0411                 0.3842

                     13                     14                     15
                      A                      A                      A
 Frequencies --    128.4963               135.7364               139.3391
 Red. masses --     99.5424               117.8617               124.4225
 Frc consts  --      0.9684                 1.2794                 1.4233
 IR Inten    --      0.2768                 0.3860                 0.3625

                     16                     17                     18
                      A                      A                      A
 Frequencies --    149.4582               161.2432               168.4432
 Red. masses --    102.2572                85.4848                85.4190
 Frc consts  --      1.3458                 1.3095                 1.4279
 IR Inten    --      0.1825                 0.2950                 0.5561

                     19                     20                     21
                      A                      A                      A
 Frequencies --    174.5682               192.0405               218.1084
 Red. masses --     86.1565                76.5379                74.9539
 Frc consts  --      1.5469                 1.6631                 2.1008
 IR Inten    --      0.2913                 0.2995                 0.5942

 - Thermochemistry -
 -------------------
 Temperature   298.150 Kelvin.  Pressure   1.00000 Atm.
 Atom     1 has atomic number 32 and mass  73.92118

 Molecular mass:  1293.48874 amu.
 Principal axes and moments of inertia in atomic units:
                           1         2         3
     Eigenvalues --  ******************************
           X            0.99929  -0.00004  -0.03773
           Y            0.00004   1.00000   0.00001
           Z            0.03773  -0.00002   0.99929
 This molecule is an asymmetric top.
 Rotational symmetry number  1.
 Warning -- assumption of classical behavior for rotation
           may cause significant error
 Rotational temperatures (Kelvin)      0.00476     0.00471     0.00427
 Rotational constants (GHZ):           0.09924     0.09815     0.08895
 Zero-point vibrational energy      15644.1 (Joules/Mol)
                                    3.73904 (Kcal/Mol)
 Warning -- explicit consideration of  21 degrees of freedom as
           vibrations may cause significant error
 Vibrational temperatures:     69.17   110.59   114.98   121.87   130.39
          (Kelvin)            143.50   150.00   154.76   156.44   157.15
                              161.27   181.69   184.88   195.29   200.48
                              215.04   231.99   242.35   251.16   276.30
                              313.81

 Zero-point correction=                           0.005959 (Hartree/Particle)
 Thermal correction to Energy=                    0.023315
 Thermal correction to Enthalpy=                  0.024259
 Thermal correction to Gibbs Free Energy=        -0.047260
 Sum of electronic and zero-point Energies=          -7517.828218
 Sum of electronic and thermal Energies=             -7517.810861
 Sum of electronic and thermal Enthalpies=           -7517.809917
 Sum of electronic and thermal Free Energies=        -7517.881436

                     E (Thermal)             CV                S
                      KCal/Mol        Cal/Mol-Kelvin    Cal/Mol-Kelvin
 Total                   14.630             46.341            150.525
 Electronic               0.000              0.000              0.000
 Translational            0.889              2.981             47.349
 Rotational               0.889              2.981             37.160
 Vibrational             12.853             40.379             66.016
 Vibration     1          0.595              1.978              4.895
 Vibration     2          0.599              1.965              3.969
 Vibration     3          0.600              1.963              3.893
 Vibration     4          0.601              1.960              3.779
 Vibration     5          0.602              1.956              3.646
 Vibration     6          0.604              1.949              3.459
 Vibration     7          0.605              1.946              3.373
 Vibration     8          0.606              1.943              3.312
 Vibration     9          0.606              1.942              3.291
 Vibration    10          0.606              1.942              3.283
 Vibration    11          0.607              1.939              3.232
 Vibration    12          0.611              1.927              3.002
 Vibration    13          0.611              1.925              2.968
 Vibration    14          0.614              1.918              2.863
 Vibration    15          0.615              1.914              2.813
 Vibration    16          0.618              1.903              2.679
 Vibration    17          0.622              1.890              2.535
 Vibration    18          0.625              1.881              2.453
 Vibration    19          0.627              1.874              2.386
 Vibration    20          0.634              1.851              2.208
 Vibration    21          0.646              1.813              1.975

 Optimization completed.
    -- Stationary point found.
 Normal termination of Gaussian 09 at Tue Mar  6 15:02:44 2018.
