 Gaussian 09, Revision D.01,
 Gaussian 09:  ES64L-G09RevD.01 24-Apr-2013

 ----------------------------------------------------------------------
 #p PBE1PBE/Def2TZVP scf=(maxcycle=768) opt=(cartesian,maxcycle=512) fr
 eq
 ----------------------------------------------------------------------

 ---------------------
 01Final_coords.xyz_00
 ---------------------
 Symbolic Z-matrix:
 Charge =  0 Multiplicity = 1

 SCF Done:  E(RPBE1PBE) =  -7517.82414149     A.U. after   16 cycles
 SCF Done:  E(RPBE1PBE) =  -7517.83002908     A.U. after   13 cycles
 SCF Done:  E(RPBE1PBE) =  -7517.83151659     A.U. after   12 cycles
 SCF Done:  E(RPBE1PBE) =  -7517.83168742     A.U. after   11 cycles
 SCF Done:  E(RPBE1PBE) =  -7517.83178982     A.U. after   11 cycles
 SCF Done:  E(RPBE1PBE) =  -7517.83182537     A.U. after   10 cycles
 SCF Done:  E(RPBE1PBE) =  -7517.83183561     A.U. after    9 cycles
 SCF Done:  E(RPBE1PBE) =  -7517.83183982     A.U. after    9 cycles
 SCF Done:  E(RPBE1PBE) =  -7517.83184283     A.U. after    9 cycles
 SCF Done:  E(RPBE1PBE) =  -7517.83184515     A.U. after    9 cycles
 SCF Done:  E(RPBE1PBE) =  -7517.83184744     A.U. after    9 cycles
 SCF Done:  E(RPBE1PBE) =  -7517.83184862     A.U. after    9 cycles
 Optimization completed.
    -- Stationary point found.
 Normal termination of Gaussian 09 at Tue Mar  6 14:48:01 2018.

 ----------------------------------------------------------------------
 #P Geom=AllCheck Guess=TCheck SCRF=Check GenChk RPBE1PBE/def2TZVP Freq
 ----------------------------------------------------------------------

 Structure from the checkpoint file:  "Isomer_00.chk"
 ---------------------
 01Final_coords.xyz_00
 ---------------------
 Charge =  0 Multiplicity = 1

                         Standard orientation:
 ---------------------------------------------------------------------
 Center     Atomic      Atomic             Coordinates (Angstroms)
 Number     Number       Type             X           Y           Z
 ---------------------------------------------------------------------
      1         83           0       -1.266421    2.097232    0.619462
      2         32           0        1.220766   -1.388699    1.722212
      3         50           0        0.764788    1.695385   -1.547731
      4         83           0       -1.278099   -2.093181    0.614313
      5         32           0        1.227303    1.376238    1.729093
      6         50           0        0.757593   -1.695138   -1.549116
      7         83           0        2.771845   -0.005024   -0.170948
      8         32           0       -0.838253   -0.001451    2.527251
      9         83           0       -1.765074    0.006188   -1.502242
 ---------------------------------------------------------------------

 SCF Done:  E(RPBE1PBE) =  -7517.83184862     A.U. after    2 cycles

 The electronic state is 1-A.
 Alpha  occ. eigenvalues -- -399.09608-399.09607-399.08763 -49.91239 -49.91237
 Alpha  occ. eigenvalues --  -49.90420 -44.39322 -44.39321 -44.39292 -44.39290
 Alpha  occ. eigenvalues --  -44.39253 -44.39251 -44.38490 -44.38476 -44.38434
 Alpha  occ. eigenvalues --   -6.27790  -6.27788  -6.26971  -6.01993  -6.01648
 Alpha  occ. eigenvalues --   -6.01425  -6.01413  -5.14055  -5.14053  -4.43251
 Alpha  occ. eigenvalues --   -4.43249  -4.43178  -4.43176  -4.43026  -4.43024
 Alpha  occ. eigenvalues --   -4.42419  -4.42350  -4.42229  -3.74256  -3.74079
 Alpha  occ. eigenvalues --   -3.74054  -3.73882  -3.73832  -3.73762  -3.73750
 Alpha  occ. eigenvalues --   -3.73657  -3.73511  -3.73498  -3.73426  -3.73415
 Alpha  occ. eigenvalues --   -3.47263  -3.47260  -3.47169  -3.47166  -3.47086
 Alpha  occ. eigenvalues --   -3.47083  -1.22781  -1.22767  -1.22744  -1.22738
 Alpha  occ. eigenvalues --   -1.22700  -1.22644  -1.22575  -1.22567  -1.22504
 Alpha  occ. eigenvalues --   -1.22403  -1.21890  -1.21867  -1.21733  -1.21692
 Alpha  occ. eigenvalues --   -1.21668  -1.08413  -1.08054  -1.07986  -1.07895
 Alpha  occ. eigenvalues --   -1.07739  -1.07653  -1.07606  -1.07506  -1.07503
 Alpha  occ. eigenvalues --   -1.07376  -1.07345  -1.07302  -1.07285  -1.07240
 Alpha  occ. eigenvalues --   -1.07182  -1.07057  -1.07046  -1.07008  -1.06968
 Alpha  occ. eigenvalues --   -1.06900  -1.03515  -1.03481  -1.03401  -1.03397
 Alpha  occ. eigenvalues --   -1.03379  -1.03349  -1.03270  -1.03263  -1.03217
 Alpha  occ. eigenvalues --   -1.03198  -0.67467  -0.62578  -0.61188  -0.58697
 Alpha  occ. eigenvalues --   -0.51150  -0.44840  -0.44774  -0.42576  -0.42389
 Alpha  occ. eigenvalues --   -0.29565  -0.27237  -0.27025  -0.26463  -0.25455
 Alpha  occ. eigenvalues --   -0.24389  -0.23920  -0.23197  -0.22378  -0.21312
 Alpha  occ. eigenvalues --   -0.20801
 Alpha virt. eigenvalues --   -0.07700  -0.07346  -0.06458  -0.06005  -0.05175
 Alpha virt. eigenvalues --   -0.04720  -0.04476  -0.04346  -0.03594  -0.03548
 Alpha virt. eigenvalues --   -0.02906  -0.02126  -0.01484   0.05134   0.05682

 Mulliken charges:
               1
     1  Bi   0.032716
     2  Ge  -0.035044
     3  Sn   0.053693
     4  Bi   0.033050
     5  Ge  -0.035067
     6  Sn   0.053609
     7  Bi  -0.009014
     8  Ge  -0.093185
     9  Bi  -0.000757
 Sum of Mulliken charges =   0.00000

 Dipole moment (field-independent basis, Debye):
    X=             -0.3947    Y=              0.0022    Z=             -1.8144  Tot=              1.8568
 Quadrupole moment (field-independent basis, Debye-Ang):
   XX=           -213.3701   YY=           -217.8245   ZZ=           -222.9729
   XY=              0.0161   XZ=             -0.6829   YZ=             -0.0053

  Exact polarizability: 381.895   0.056 379.083  -5.668  -0.038 373.075
 Approx polarizability:1196.259   0.4131139.583 -26.928  -0.3141167.113

                      1                      2                      3
                      A                      A                      A
 Frequencies --     28.8875                50.7695                69.1343
 Red. masses --    149.5567               124.4501               146.7541
 Frc consts  --      0.0735                 0.1890                 0.4133
 IR Inten    --      0.0188                 0.0690                 0.0235

                      4                      5                      6
                      A                      A                      A
 Frequencies --     79.5332                90.3466               100.9308
 Red. masses --    147.2071               141.1834               114.6392
 Frc consts  --      0.5486                 0.6790                 0.6881
 IR Inten    --      0.1008                 0.1683                 0.1330

                      7                      8                      9
                      A                      A                      A
 Frequencies --    103.9218               106.9375               110.0707
 Red. masses --    152.4396               148.8939               128.5492
 Frc consts  --      0.9700                 1.0032                 0.9176
 IR Inten    --      0.0054                 0.0126                 0.1117

                     10                     11                     12
                      A                      A                      A
 Frequencies --    113.1761               123.2826               136.8786
 Red. masses --    153.7979               125.0352                78.3585
 Frc consts  --      1.1607                 1.1197                 0.8650
 IR Inten    --      0.0867                 0.4561                 0.1167

                     13                     14                     15
                      A                      A                      A
 Frequencies --    137.7251               144.2773               144.4428
 Red. masses --    129.0701               137.5409                86.0662
 Frc consts  --      1.4425                 1.6869                 1.0580
 IR Inten    --      0.9242                 0.4419                 0.0568

                     16                     17                     18
                      A                      A                      A
 Frequencies --    147.4773               148.6230               150.0236
 Red. masses --     79.8419               128.5713                93.9930
 Frc consts  --      1.0231                 1.6733                 1.2464
 IR Inten    --      0.0133                 0.1298                 0.0765

                     19                     20                     21
                      A                      A                      A
 Frequencies --    189.2554               197.9554               211.0374
 Red. masses --     81.6758                78.9556                76.1702
 Frc consts  --      1.7236                 1.8229                 1.9987
 IR Inten    --      0.1480                 0.3957                 0.2258

 - Thermochemistry -
 -------------------
 Temperature   298.150 Kelvin.  Pressure   1.00000 Atm.
 Atom     1 has atomic number 83 and mass 208.98040

 Molecular mass:  1293.48874 amu.
 Principal axes and moments of inertia in atomic units:
                           1         2         3
     Eigenvalues --  ******************************
           X            0.99999   0.00012  -0.00372
           Y           -0.00012   1.00000  -0.00013
           Z            0.00372   0.00013   0.99999
 This molecule is an asymmetric top.
 Rotational symmetry number  1.
 Warning -- assumption of classical behavior for rotation
           may cause significant error
 Rotational temperatures (Kelvin)      0.00494     0.00444     0.00395
 Rotational constants (GHZ):           0.10294     0.09261     0.08234
 Zero-point vibrational energy      15459.9 (Joules/Mol)
                                    3.69499 (Kcal/Mol)
 Warning -- explicit consideration of  21 degrees of freedom as
           vibrations may cause significant error
 Vibrational temperatures:     41.56    73.05    99.47   114.43   129.99
          (Kelvin)            145.22   149.52   153.86   158.37   162.84
                              177.38   196.94   198.16   207.58   207.82
                              212.19   213.84   215.85   272.30   284.81
                              303.64

 Zero-point correction=                           0.005888 (Hartree/Particle)
 Thermal correction to Energy=                    0.023315
 Thermal correction to Enthalpy=                  0.024259
 Thermal correction to Gibbs Free Energy=        -0.048133
 Sum of electronic and zero-point Energies=          -7517.825960
 Sum of electronic and thermal Energies=             -7517.808534
 Sum of electronic and thermal Enthalpies=           -7517.807590
 Sum of electronic and thermal Free Energies=        -7517.879981

                     E (Thermal)             CV                S
                      KCal/Mol        Cal/Mol-Kelvin    Cal/Mol-Kelvin
 Total                   14.630             46.342            152.361
 Electronic               0.000              0.000              0.000
 Translational            0.889              2.981             47.349
 Rotational               0.889              2.981             37.258
 Vibrational             12.853             40.380             67.754
 Vibration     1          0.593              1.984              5.904
 Vibration     2          0.595              1.977              4.787
 Vibration     3          0.598              1.969              4.178
 Vibration     4          0.600              1.963              3.902
 Vibration     5          0.602              1.956              3.653
 Vibration     6          0.604              1.948              3.436
 Vibration     7          0.605              1.946              3.379
 Vibration     8          0.606              1.944              3.324
 Vibration     9          0.606              1.941              3.268
 Vibration    10          0.607              1.939              3.214
 Vibration    11          0.610              1.930              3.048
 Vibration    12          0.614              1.917              2.847
 Vibration    13          0.614              1.916              2.835
 Vibration    14          0.616              1.909              2.746
 Vibration    15          0.616              1.909              2.744
 Vibration    16          0.617              1.905              2.705
 Vibration    17          0.618              1.904              2.690
 Vibration    18          0.618              1.903              2.672
 Vibration    19          0.633              1.855              2.235
 Vibration    20          0.637              1.843              2.152
 Vibration    21          0.643              1.824              2.035

 Normal termination of Gaussian 09 at Tue Mar  6 16:04:20 2018.
