 Gaussian 09, Revision D.01,
 Gaussian 09:  ES64L-G09RevD.01 24-Apr-2013

 ----------------------------------------------------------------------
 #p PBE1PBE/Def2TZVP scf=(maxcycle=768) opt=(cartesian,maxcycle=512) fr
 eq
 ----------------------------------------------------------------------

 ---------------------
 01Final_coords.xyz_09
 ---------------------
 Symbolic Z-matrix:
 Charge =  0 Multiplicity = 1

 SCF Done:  E(RPBE1PBE) =  -7517.81919609     A.U. after   17 cycles
 SCF Done:  E(RPBE1PBE) =  -7517.82506208     A.U. after   13 cycles
 SCF Done:  E(RPBE1PBE) =  -7517.82655751     A.U. after   12 cycles
 SCF Done:  E(RPBE1PBE) =  -7517.82670240     A.U. after   12 cycles
 SCF Done:  E(RPBE1PBE) =  -7517.82679687     A.U. after   12 cycles
 SCF Done:  E(RPBE1PBE) =  -7517.82682090     A.U. after   10 cycles
 SCF Done:  E(RPBE1PBE) =  -7517.82682940     A.U. after   10 cycles
 SCF Done:  E(RPBE1PBE) =  -7517.82683279     A.U. after    9 cycles
 SCF Done:  E(RPBE1PBE) =  -7517.82683411     A.U. after    9 cycles
 Optimization completed.
    -- Stationary point found.
 Normal termination of Gaussian 09 at Tue Mar  6 15:42:05 2018.

 ----------------------------------------------------------------------
 #P Geom=AllCheck Guess=TCheck SCRF=Check GenChk RPBE1PBE/def2TZVP Freq
 ----------------------------------------------------------------------

 Structure from the checkpoint file:  "Isomer_09.chk"
 ---------------------
 01Final_coords.xyz_09
 ---------------------
 Charge =  0 Multiplicity = 1

                         Standard orientation:
 ---------------------------------------------------------------------
 Center     Atomic      Atomic             Coordinates (Angstroms)
 Number     Number       Type             X           Y           Z
 ---------------------------------------------------------------------
      1         83           0        1.989052   -0.764549   -1.336935
      2         32           0       -0.558954   -0.275753   -2.435620
      3         83           0       -0.935303    2.015531   -0.724446
      4         32           0       -0.187331   -2.437569   -0.716350
      5         83           0       -2.413985   -0.578537   -0.297975
      6         32           0       -1.143115   -2.013739    1.730444
      7         50           0        1.522616   -1.383314    1.580741
      8         50           0       -0.835825    0.771486    2.166151
      9         83           0        1.674949    1.518608    0.650250
 ---------------------------------------------------------------------

 SCF Done:  E(RPBE1PBE) =  -7517.82683411     A.U. after    1 cycles

 The electronic state is 1-A.
 Alpha  occ. eigenvalues -- -399.09493-399.09091-399.08727 -49.91112 -49.90726
 Alpha  occ. eigenvalues --  -49.90416 -44.39198 -44.39163 -44.39128 -44.38792
 Alpha  occ. eigenvalues --  -44.38783 -44.38748 -44.38490 -44.38468 -44.38421
 Alpha  occ. eigenvalues --   -6.27653  -6.27260  -6.26970  -6.02635  -6.02011
 Alpha  occ. eigenvalues --   -6.01864  -6.01411  -5.13808  -5.13461  -4.43127
 Alpha  occ. eigenvalues --   -4.43011  -4.42899  -4.42688  -4.42640  -4.42521
 Alpha  occ. eigenvalues --   -4.42441  -4.42355  -4.42202  -3.74937  -3.74762
 Alpha  occ. eigenvalues --   -3.74657  -3.74287  -3.74172  -3.74101  -3.74077
 Alpha  occ. eigenvalues --   -3.74057  -3.73757  -3.73746  -3.73510  -3.73405
 Alpha  occ. eigenvalues --   -3.47066  -3.46973  -3.46740  -3.46710  -3.46630
 Alpha  occ. eigenvalues --   -3.46410  -1.22611  -1.22598  -1.22505  -1.22445
 Alpha  occ. eigenvalues --   -1.22394  -1.22167  -1.22140  -1.22085  -1.21992
 Alpha  occ. eigenvalues --   -1.21975  -1.21929  -1.21884  -1.21807  -1.21684
 Alpha  occ. eigenvalues --   -1.21669  -1.08976  -1.08637  -1.08580  -1.08462
 Alpha  occ. eigenvalues --   -1.08383  -1.08294  -1.08090  -1.08025  -1.07969
 Alpha  occ. eigenvalues --   -1.07818  -1.07627  -1.07518  -1.07429  -1.07346
 Alpha  occ. eigenvalues --   -1.07328  -1.07286  -1.07231  -1.07053  -1.07020
 Alpha  occ. eigenvalues --   -1.06950  -1.03297  -1.03285  -1.03145  -1.03058
 Alpha  occ. eigenvalues --   -1.03006  -1.02920  -1.02908  -1.02760  -1.02652
 Alpha  occ. eigenvalues --   -1.02611  -0.68129  -0.63007  -0.60850  -0.56946
 Alpha  occ. eigenvalues --   -0.52096  -0.47910  -0.43904  -0.42161  -0.40738
 Alpha  occ. eigenvalues --   -0.29820  -0.27987  -0.27413  -0.26419  -0.24932
 Alpha  occ. eigenvalues --   -0.24411  -0.23497  -0.23303  -0.22716  -0.21161
 Alpha  occ. eigenvalues --   -0.20411
 Alpha virt. eigenvalues --   -0.07579  -0.06966  -0.06783  -0.06143  -0.05887
 Alpha virt. eigenvalues --   -0.05450  -0.04603  -0.04175  -0.03850  -0.02904
 Alpha virt. eigenvalues --   -0.02581  -0.01776  -0.01502   0.04834   0.05670

 Mulliken charges:
               1
     1  Bi   0.055927
     2  Ge  -0.133456
     3  Bi   0.032086
     4  Ge  -0.032014
     5  Bi   0.142965
     6  Ge  -0.187630
     7  Sn   0.073161
     8  Sn   0.053946
     9  Bi  -0.004985
 Sum of Mulliken charges =   0.00000

 Dipole moment (field-independent basis, Debye):
    X=              0.2666    Y=              1.6901    Z=              0.0353  Tot=              1.7114
 Quadrupole moment (field-independent basis, Debye-Ang):
   XX=           -212.8214   YY=           -220.1787   ZZ=           -222.1020
   XY=              0.2651   XZ=              0.2211   YZ=             -0.5713

  Exact polarizability: 378.926  -3.319 373.332  -0.397  -3.354 376.284
 Approx polarizability:1149.437  15.9461164.502 -12.182 -33.7271185.356

                      1                      2                      3
                      A                      A                      A
 Frequencies --     44.9509                65.0720                79.8803
 Red. masses --    167.3726               130.9678               147.6275
 Frc consts  --      0.1993                 0.3267                 0.5550
 IR Inten    --      0.0267                 0.0484                 0.0217

                      4                      5                      6
                      A                      A                      A
 Frequencies --     81.7752                88.6007                93.7145
 Red. masses --    125.6786               160.3372               131.4272
 Frc consts  --      0.4952                 0.7416                 0.6801
 IR Inten    --      0.1155                 0.1409                 0.0469

                      7                      8                      9
                      A                      A                      A
 Frequencies --     97.0825               105.0667               109.6410
 Red. masses --    148.0291               129.9715               128.9947
 Frc consts  --      0.8220                 0.8453                 0.9136
 IR Inten    --      0.0177                 0.0731                 0.1985

                     10                     11                     12
                      A                      A                      A
 Frequencies --    112.6788               114.9991               124.4856
 Red. masses --    127.4926               132.6347               107.8950
 Frc consts  --      0.9537                 1.0335                 0.9851
 IR Inten    --      0.1205                 0.2053                 0.0995

                     13                     14                     15
                      A                      A                      A
 Frequencies --    136.1217               140.9267               145.4502
 Red. masses --    129.2025               121.6858               100.7243
 Frc consts  --      1.4105                 1.4239                 1.2555
 IR Inten    --      0.4227                 0.6680                 0.1156

                     16                     17                     18
                      A                      A                      A
 Frequencies --    153.1786               161.8693               174.5055
 Red. masses --     84.7406                78.8032                87.8480
 Frc consts  --      1.1715                 1.2165                 1.5762
 IR Inten    --      0.2430                 0.5704                 0.1314

                     19                     20                     21
                      A                      A                      A
 Frequencies --    176.3772               178.4513               195.6977
 Red. masses --     81.6655                85.8267                79.2331
 Frc consts  --      1.4968                 1.6103                 1.7878
 IR Inten    --      0.1955                 0.8876                 0.4799

 - Thermochemistry -
 -------------------
 Temperature   298.150 Kelvin.  Pressure   1.00000 Atm.
 Atom     1 has atomic number 83 and mass 208.98040

 Molecular mass:  1293.48874 amu.
 Principal axes and moments of inertia in atomic units:
                           1         2         3
     Eigenvalues --  ******************************
           X            0.99999  -0.00326   0.00131
           Y            0.00329   0.99961  -0.02759
           Z           -0.00122   0.02759   0.99962
 This molecule is an asymmetric top.
 Rotational symmetry number  1.
 Warning -- assumption of classical behavior for rotation
           may cause significant error
 Rotational temperatures (Kelvin)      0.00516     0.00447     0.00414
 Rotational constants (GHZ):           0.10758     0.09313     0.08633
 Zero-point vibrational energy      15435.0 (Joules/Mol)
                                    3.68905 (Kcal/Mol)
 Warning -- explicit consideration of  21 degrees of freedom as
           vibrations may cause significant error
 Vibrational temperatures:     64.67    93.62   114.93   117.66   127.48
          (Kelvin)            134.83   139.68   151.17   157.75   162.12
                              165.46   179.11   195.85   202.76   209.27
                              220.39   232.89   251.07   253.77   256.75
                              281.56

 Zero-point correction=                           0.005879 (Hartree/Particle)
 Thermal correction to Energy=                    0.023298
 Thermal correction to Enthalpy=                  0.024242
 Thermal correction to Gibbs Free Energy=        -0.047617
 Sum of electronic and zero-point Energies=          -7517.820955
 Sum of electronic and thermal Energies=             -7517.803537
 Sum of electronic and thermal Enthalpies=           -7517.802592
 Sum of electronic and thermal Free Energies=        -7517.874451

                     E (Thermal)             CV                S
                      KCal/Mol        Cal/Mol-Kelvin    Cal/Mol-Kelvin
 Total                   14.619             46.375            151.239
 Electronic               0.000              0.000              0.000
 Translational            0.889              2.981             47.349
 Rotational               0.889              2.981             37.161
 Vibrational             12.842             40.414             66.729
 Vibration     1          0.595              1.979              5.028
 Vibration     2          0.597              1.971              4.297
 Vibration     3          0.600              1.963              3.894
 Vibration     4          0.600              1.962              3.848
 Vibration     5          0.601              1.957              3.691
 Vibration     6          0.603              1.954              3.581
 Vibration     7          0.603              1.951              3.512
 Vibration     8          0.605              1.945              3.358
 Vibration     9          0.606              1.941              3.275
 Vibration    10          0.607              1.939              3.222
 Vibration    11          0.608              1.937              3.183
 Vibration    12          0.610              1.929              3.030
 Vibration    13          0.614              1.917              2.858
 Vibration    14          0.615              1.912              2.791
 Vibration    15          0.617              1.908              2.731
 Vibration    16          0.619              1.899              2.632
 Vibration    17          0.622              1.889              2.528
 Vibration    18          0.627              1.874              2.386
 Vibration    19          0.628              1.871              2.366
 Vibration    20          0.629              1.869              2.345
 Vibration    21          0.636              1.846              2.173

 Normal termination of Gaussian 09 at Tue Mar  6 17:50:10 2018.
