 Gaussian 09, Revision D.01,
 Gaussian 09:  ES64L-G09RevD.01 24-Apr-2013

 ----------------------------------------------------------------------
 #p PBE1PBE/Def2TZVP scf=(maxcycle=768) opt=(cartesian,maxcycle=512) fr
 eq
 ----------------------------------------------------------------------

 ---------------------
 01Final_coords.xyz_37
 ---------------------
 Symbolic Z-matrix:
 Charge =  0 Multiplicity = 1

 SCF Done:  E(RPBE1PBE) =  -7517.81023493     A.U. after   17 cycles
 SCF Done:  E(RPBE1PBE) =  -7517.81588758     A.U. after   12 cycles
 SCF Done:  E(RPBE1PBE) =  -7517.81723560     A.U. after   12 cycles
 SCF Done:  E(RPBE1PBE) =  -7517.81737541     A.U. after   12 cycles
 SCF Done:  E(RPBE1PBE) =  -7517.81745745     A.U. after   12 cycles
 SCF Done:  E(RPBE1PBE) =  -7517.81749045     A.U. after   11 cycles
 SCF Done:  E(RPBE1PBE) =  -7517.81749977     A.U. after   10 cycles
 SCF Done:  E(RPBE1PBE) =  -7517.81750424     A.U. after   11 cycles
 SCF Done:  E(RPBE1PBE) =  -7517.81750575     A.U. after    9 cycles
 SCF Done:  E(RPBE1PBE) =  -7517.81750531     A.U. after    9 cycles
 SCF Done:  E(RPBE1PBE) =  -7517.81750573     A.U. after    1 cycles
 Optimization completed.
    -- Stationary point found.
 Normal termination of Gaussian 09 at Tue Mar  6 16:35:22 2018.

 ----------------------------------------------------------------------
 #P Geom=AllCheck Guess=TCheck SCRF=Check GenChk RPBE1PBE/def2TZVP Freq
 ----------------------------------------------------------------------

 Structure from the checkpoint file:  "Isomer_37.chk"
 ---------------------
 01Final_coords.xyz_37
 ---------------------
 Charge =  0 Multiplicity = 1

                         Standard orientation:
 ---------------------------------------------------------------------
 Center     Atomic      Atomic             Coordinates (Angstroms)
 Number     Number       Type             X           Y           Z
 ---------------------------------------------------------------------
      1         83           0       -1.177057   -2.003984    0.147317
      2         32           0       -0.237576    2.131378    1.381461
      3         50           0       -0.352179   -0.323193   -2.333665
      4         83           0        1.966795    1.398303   -0.351834
      5         83           0        1.709173   -1.610545   -0.471161
      6         50           0        1.446365   -0.068397    2.201729
      7         83           0       -2.381676    0.771910   -0.146461
      8         32           0       -1.336848   -0.131653    2.320488
      9         32           0       -0.439317    2.358330   -1.363374
 ---------------------------------------------------------------------

 SCF Done:  E(RPBE1PBE) =  -7517.81750573     A.U. after    2 cycles

 The electronic state is 1-A.
 Alpha  occ. eigenvalues -- -399.09336-399.09000-399.08425 -49.90954 -49.90671
 Alpha  occ. eigenvalues --  -49.90097 -44.39040 -44.39000 -44.38974 -44.38739
 Alpha  occ. eigenvalues --  -44.38719 -44.38689 -44.38176 -44.38155 -44.38095
 Alpha  occ. eigenvalues --   -6.27495  -6.27217  -6.26640  -6.02592  -6.02261
 Alpha  occ. eigenvalues --   -6.02220  -6.01764  -5.13856  -5.12989  -4.42973
 Alpha  occ. eigenvalues --   -4.42837  -4.42751  -4.42669  -4.42579  -4.42482
 Alpha  occ. eigenvalues --   -4.42121  -4.42042  -4.41842  -3.74921  -3.74705
 Alpha  occ. eigenvalues --   -3.74605  -3.74603  -3.74531  -3.74410  -3.74341
 Alpha  occ. eigenvalues --   -3.74278  -3.74144  -3.74058  -3.73920  -3.73720
 Alpha  occ. eigenvalues --   -3.47094  -3.47020  -3.46803  -3.46241  -3.46150
 Alpha  occ. eigenvalues --   -3.45939  -1.22456  -1.22433  -1.22371  -1.22280
 Alpha  occ. eigenvalues --   -1.22236  -1.22133  -1.22104  -1.22054  -1.21948
 Alpha  occ. eigenvalues --   -1.21921  -1.21617  -1.21597  -1.21438  -1.21341
 Alpha  occ. eigenvalues --   -1.21325  -1.09038  -1.08718  -1.08649  -1.08560
 Alpha  occ. eigenvalues --   -1.08410  -1.08328  -1.08260  -1.08245  -1.08217
 Alpha  occ. eigenvalues --   -1.08114  -1.07991  -1.07966  -1.07868  -1.07817
 Alpha  occ. eigenvalues --   -1.07686  -1.07538  -1.07415  -1.07375  -1.07239
 Alpha  occ. eigenvalues --   -1.07186  -1.03313  -1.03300  -1.03112  -1.03066
 Alpha  occ. eigenvalues --   -1.03036  -1.02474  -1.02468  -1.02309  -1.02225
 Alpha  occ. eigenvalues --   -1.02163  -0.68262  -0.63301  -0.61518  -0.55083
 Alpha  occ. eigenvalues --   -0.53096  -0.48448  -0.43664  -0.41584  -0.40633
 Alpha  occ. eigenvalues --   -0.29839  -0.28160  -0.28066  -0.25903  -0.25236
 Alpha  occ. eigenvalues --   -0.24508  -0.23766  -0.23046  -0.22505  -0.21416
 Alpha  occ. eigenvalues --   -0.19365
 Alpha virt. eigenvalues --   -0.07635  -0.07452  -0.06802  -0.06364  -0.05686
 Alpha virt. eigenvalues --   -0.05263  -0.05015  -0.04367  -0.04267  -0.03176
 Alpha virt. eigenvalues --   -0.02058  -0.01721  -0.00904   0.04832   0.05659

 Mulliken charges:
               1
     1  Bi   0.075401
     2  Ge  -0.037216
     3  Sn   0.053690
     4  Bi   0.122804
     5  Bi  -0.049242
     6  Sn   0.061207
     7  Bi   0.143452
     8  Ge  -0.175468
     9  Ge  -0.194628
 Sum of Mulliken charges =   0.00000

 Dipole moment (field-independent basis, Debye):
    X=              0.3532    Y=             -1.3832    Z=             -1.1597  Tot=              1.8392
 Quadrupole moment (field-independent basis, Debye-Ang):
   XX=           -212.6110   YY=           -218.4917   ZZ=           -224.1840
   XY=              0.1158   XZ=              0.1391   YZ=             -1.3277

  Exact polarizability: 377.697  -3.491 369.081   8.620  -0.961 388.721
 Approx polarizability:1148.229 -25.7891170.467   9.030 -44.2611255.618

                      1                      2                      3
                      A                      A                      A
 Frequencies --      8.8157                57.6512                73.3442
 Red. masses --    148.4921               128.5847               167.1934
 Frc consts  --      0.0068                 0.2518                 0.5299
 IR Inten    --      0.3154                 0.1713                 0.0371

                      4                      5                      6
                      A                      A                      A
 Frequencies --     85.0284                89.0355                90.2187
 Red. masses --    127.2720               143.6087               169.1653
 Frc consts  --      0.5421                 0.6707                 0.8112
 IR Inten    --      0.1037                 0.1745                 0.0215

                      7                      8                      9
                      A                      A                      A
 Frequencies --     96.9078               103.7682               109.5194
 Red. masses --    133.4449               144.4708               124.8282
 Frc consts  --      0.7384                 0.9166                 0.8822
 IR Inten    --      0.0104                 0.0833                 0.0744

                     10                     11                     12
                      A                      A                      A
 Frequencies --    113.8776               115.9488               122.7474
 Red. masses --    113.6385               120.8277               119.2300
 Frc consts  --      0.8683                 0.9571                 1.0584
 IR Inten    --      0.1544                 0.4516                 0.1643

                     13                     14                     15
                      A                      A                      A
 Frequencies --    139.0077               139.4785               146.1725
 Red. masses --    117.7828               140.1721                84.7390
 Frc consts  --      1.3409                 1.6067                 1.0668
 IR Inten    --      0.5462                 0.4321                 0.5872

                     16                     17                     18
                      A                      A                      A
 Frequencies --    151.9413               162.3287               173.5501
 Red. masses --     93.4837                83.6546                87.5702
 Frc consts  --      1.2716                 1.2988                 1.5540
 IR Inten    --      0.0459                 0.0475                 0.1933

                     19                     20                     21
                      A                      A                      A
 Frequencies --    177.4894               182.0066               187.8702
 Red. masses --     85.3986                80.3506                80.2042
 Frc consts  --      1.5851                 1.5682                 1.6679
 IR Inten    --      1.1088                 0.4301                 0.7591

 - Thermochemistry -
 -------------------
 Temperature   298.150 Kelvin.  Pressure   1.00000 Atm.
 Atom     1 has atomic number 83 and mass 208.98040

 Molecular mass:  1293.48874 amu.
 Principal axes and moments of inertia in atomic units:
                           1         2         3
     Eigenvalues --  ******************************
           X            0.99985  -0.01439   0.00983
           Y            0.01438   0.99990   0.00169
           Z           -0.00985  -0.00155   0.99995
 This molecule is an asymmetric top.
 Rotational symmetry number  1.
 Warning -- assumption of classical behavior for rotation
           may cause significant error
 Rotational temperatures (Kelvin)      0.00522     0.00460     0.00406
 Rotational constants (GHZ):           0.10878     0.09577     0.08450
 Zero-point vibrational energy      15113.1 (Joules/Mol)
                                    3.61211 (Kcal/Mol)
 Warning -- explicit consideration of  21 degrees of freedom as
           vibrations may cause significant error
 Vibrational temperatures:     12.68    82.95   105.53   122.34   128.10
          (Kelvin)            129.80   139.43   149.30   157.57   163.84
                              166.82   176.61   200.00   200.68   210.31
                              218.61   233.55   249.70   255.37   261.87
                              270.30

 Zero-point correction=                           0.005756 (Hartree/Particle)
 Thermal correction to Energy=                    0.023288
 Thermal correction to Enthalpy=                  0.024232
 Thermal correction to Gibbs Free Energy=        -0.049360
 Sum of electronic and zero-point Energies=          -7517.811749
 Sum of electronic and thermal Energies=             -7517.794218
 Sum of electronic and thermal Enthalpies=           -7517.793274
 Sum of electronic and thermal Free Energies=        -7517.866866

                     E (Thermal)             CV                S
                      KCal/Mol        Cal/Mol-Kelvin    Cal/Mol-Kelvin
 Total                   14.613             46.396            154.888
 Electronic               0.000              0.000              0.000
 Translational            0.889              2.981             47.349
 Rotational               0.889              2.981             37.144
 Vibrational             12.836             40.434             70.395
 Vibration     1          0.593              1.987              8.262
 Vibration     2          0.596              1.974              4.536
 Vibration     3          0.599              1.967              4.062
 Vibration     4          0.601              1.960              3.771
 Vibration     5          0.602              1.957              3.681
 Vibration     6          0.602              1.956              3.655
 Vibration     7          0.603              1.951              3.516
 Vibration     8          0.605              1.946              3.382
 Vibration     9          0.606              1.942              3.277
 Vibration    10          0.607              1.938              3.202
 Vibration    11          0.608              1.936              3.167
 Vibration    12          0.610              1.930              3.057
 Vibration    13          0.615              1.914              2.817
 Vibration    14          0.615              1.914              2.811
 Vibration    15          0.617              1.907              2.721
 Vibration    16          0.619              1.901              2.648
 Vibration    17          0.622              1.889              2.522
 Vibration    18          0.627              1.875              2.397
 Vibration    19          0.628              1.870              2.355
 Vibration    20          0.630              1.864              2.308
 Vibration    21          0.633              1.857              2.249

 Normal termination of Gaussian 09 at Tue Mar  6 17:33:32 2018.
