 Gaussian 09, Revision D.01,
 Gaussian 09:  ES64L-G09RevD.01 24-Apr-2013

 ----------------------------------------------------------------------
 #p PBE1PBE/Def2TZVP scf=(maxcycle=768) opt=(cartesian,maxcycle=512) fr
 eq
 ----------------------------------------------------------------------

 ---------------------
 01Final_coords.xyz_47
 ---------------------
 Symbolic Z-matrix:
 Charge =  0 Multiplicity = 1

 SCF Done:  E(RPBE1PBE) =  -7517.80653647     A.U. after   16 cycles
 SCF Done:  E(RPBE1PBE) =  -7517.81209842     A.U. after   13 cycles
 SCF Done:  E(RPBE1PBE) =  -7517.81343758     A.U. after   12 cycles
 SCF Done:  E(RPBE1PBE) =  -7517.81361410     A.U. after   12 cycles
 SCF Done:  E(RPBE1PBE) =  -7517.81372259     A.U. after   12 cycles
 SCF Done:  E(RPBE1PBE) =  -7517.81376912     A.U. after   12 cycles
 SCF Done:  E(RPBE1PBE) =  -7517.81377799     A.U. after   10 cycles
 SCF Done:  E(RPBE1PBE) =  -7517.81378231     A.U. after    9 cycles
 SCF Done:  E(RPBE1PBE) =  -7517.81378509     A.U. after    9 cycles
 SCF Done:  E(RPBE1PBE) =  -7517.81378719     A.U. after    9 cycles
 SCF Done:  E(RPBE1PBE) =  -7517.81378829     A.U. after    9 cycles
 SCF Done:  E(RPBE1PBE) =  -7517.81378823     A.U. after   10 cycles
 SCF Done:  E(RPBE1PBE) =  -7517.81378864     A.U. after    8 cycles
 Optimization completed.
    -- Stationary point found.
 Normal termination of Gaussian 09 at Thu Mar  8 09:08:56 2018.

 ----------------------------------------------------------------------
 #P Geom=AllCheck Guess=TCheck SCRF=Check GenChk RPBE1PBE/def2TZVP Freq
 ----------------------------------------------------------------------

 Structure from the checkpoint file:  "Isomer_47.chk"
 ---------------------
 01Final_coords.xyz_47
 ---------------------
 Charge =  0 Multiplicity = 1

                         Standard orientation:
 ---------------------------------------------------------------------
 Center     Atomic      Atomic             Coordinates (Angstroms)
 Number     Number       Type             X           Y           Z
 ---------------------------------------------------------------------
      1         83           0       -2.115078   -0.943014   -0.940022
      2         50           0        0.870848    0.449465    2.189498
      3         32           0        0.331172   -1.870598   -1.799464
      4         83           0        2.248250   -1.317026    0.213506
      5         32           0       -0.263754    0.676347   -2.414321
      6         83           0        1.736334    1.536204   -0.611319
      7         83           0       -1.127055    1.953636    0.094899
      8         50           0       -1.965772   -0.275224    1.998773
      9         32           0       -0.282333   -2.267793    0.893477
 ---------------------------------------------------------------------

 SCF Done:  E(RPBE1PBE) =  -7517.81378864     A.U. after    1 cycles

 The electronic state is 1-A.
 Alpha  occ. eigenvalues -- -399.09450-399.08699-399.08628 -49.91069 -49.90347
 Alpha  occ. eigenvalues --  -49.90272 -44.39149 -44.39111 -44.39100 -44.38435
 Alpha  occ. eigenvalues --  -44.38414 -44.38342 -44.38334 -44.38334 -44.38287
 Alpha  occ. eigenvalues --   -6.27606  -6.26881  -6.26817  -6.02522  -6.02318
 Alpha  occ. eigenvalues --   -6.02147  -6.01624  -5.13810  -5.13339  -4.43065
 Alpha  occ. eigenvalues --   -4.42936  -4.42896  -4.42371  -4.42314  -4.42264
 Alpha  occ. eigenvalues --   -4.42219  -4.42054  -4.42030  -3.74806  -3.74646
 Alpha  occ. eigenvalues --   -3.74599  -3.74541  -3.74461  -3.74431  -3.74348
 Alpha  occ. eigenvalues --   -3.74345  -3.74090  -3.73969  -3.73690  -3.73642
 Alpha  occ. eigenvalues --   -3.47071  -3.46934  -3.46782  -3.46562  -3.46546
 Alpha  occ. eigenvalues --   -3.46266  -1.22527  -1.22506  -1.22448  -1.22370
 Alpha  occ. eigenvalues --   -1.22331  -1.21906  -1.21902  -1.21786  -1.21776
 Alpha  occ. eigenvalues --   -1.21745  -1.21644  -1.21604  -1.21513  -1.21497
 Alpha  occ. eigenvalues --   -1.21381  -1.09035  -1.08550  -1.08535  -1.08487
 Alpha  occ. eigenvalues --   -1.08354  -1.08268  -1.08187  -1.08155  -1.08107
 Alpha  occ. eigenvalues --   -1.08021  -1.07971  -1.07933  -1.07917  -1.07767
 Alpha  occ. eigenvalues --   -1.07590  -1.07564  -1.07456  -1.07311  -1.07216
 Alpha  occ. eigenvalues --   -1.07144  -1.03416  -1.03264  -1.03201  -1.03136
 Alpha  occ. eigenvalues --   -1.03032  -1.02812  -1.02801  -1.02552  -1.02492
 Alpha  occ. eigenvalues --   -1.02335  -0.68241  -0.62894  -0.61762  -0.56193
 Alpha  occ. eigenvalues --   -0.51433  -0.48032  -0.44385  -0.41963  -0.40477
 Alpha  occ. eigenvalues --   -0.29882  -0.28342  -0.27425  -0.26151  -0.24914
 Alpha  occ. eigenvalues --   -0.24245  -0.24065  -0.23280  -0.22690  -0.20637
 Alpha  occ. eigenvalues --   -0.19714
 Alpha virt. eigenvalues --   -0.07779  -0.07164  -0.06998  -0.06551  -0.05466
 Alpha virt. eigenvalues --   -0.05318  -0.04479  -0.04279  -0.04113  -0.03815
 Alpha virt. eigenvalues --   -0.02785  -0.01853   0.00159   0.04885   0.05612

 Mulliken charges:
               1
     1  Bi   0.142259
     2  Sn   0.048384
     3  Ge  -0.077635
     4  Bi   0.020756
     5  Ge  -0.154317
     6  Bi   0.063835
     7  Bi   0.085530
     8  Sn  -0.067887
     9  Ge  -0.060924
 Sum of Mulliken charges =   0.00000

 Dipole moment (field-independent basis, Debye):
    X=              0.1723    Y=              1.2034    Z=              0.7698  Tot=              1.4389
 Quadrupole moment (field-independent basis, Debye-Ang):
   XX=           -210.5723   YY=           -220.6362   ZZ=           -223.0912
   XY=              0.0442   XZ=             -0.6315   YZ=             -0.2056

  Exact polarizability: 388.787   1.919 364.066  -8.025   2.839 382.124
 Approx polarizability:1217.558  -7.0331146.314 -53.091  17.4271223.248

                      1                      2                      3
                      A                      A                      A
 Frequencies --     28.4180                47.5710                67.8967
 Red. masses --    128.7450               131.2633               129.6549
 Frc consts  --      0.0613                 0.1750                 0.3522
 IR Inten    --      0.2889                 0.1509                 0.0574

                      4                      5                      6
                      A                      A                      A
 Frequencies --     79.2486                89.5817                94.5708
 Red. masses --    167.7570               134.1715               163.7397
 Frc consts  --      0.6207                 0.6344                 0.8628
 IR Inten    --      0.0288                 0.1142                 0.1214

                      7                      8                      9
                      A                      A                      A
 Frequencies --     94.8207                99.5647               106.6054
 Red. masses --    140.0108               137.8585               159.8178
 Frc consts  --      0.7417                 0.8052                 1.0701
 IR Inten    --      0.2173                 0.2274                 0.0299

                     10                     11                     12
                      A                      A                      A
 Frequencies --    114.8426               119.0871               128.0047
 Red. masses --    114.2089               120.4756               118.1755
 Frc consts  --      0.8875                 1.0067                 1.1409
 IR Inten    --      0.2983                 0.2059                 0.1988

                     13                     14                     15
                      A                      A                      A
 Frequencies --    136.6501               141.9171               147.6545
 Red. masses --     96.1522               127.0614               104.0728
 Frc consts  --      1.0579                 1.5078                 1.3368
 IR Inten    --      0.5886                 0.4954                 0.3516

                     16                     17                     18
                      A                      A                      A
 Frequencies --    151.0016               162.9154               166.5606
 Red. masses --     85.8026                84.4535                85.6072
 Frc consts  --      1.1527                 1.3207                 1.3993
 IR Inten    --      0.0461                 0.3766                 0.0947

                     19                     20                     21
                      A                      A                      A
 Frequencies --    173.0827               185.7957               194.6176
 Red. masses --     82.9917                84.9675                83.4765
 Frc consts  --      1.4648                 1.7281                 1.8629
 IR Inten    --      0.5994                 0.6391                 0.5940

 - Thermochemistry -
 -------------------
 Temperature   298.150 Kelvin.  Pressure   1.00000 Atm.
 Atom     1 has atomic number 83 and mass 208.98040

 Molecular mass:  1293.48874 amu.
 Principal axes and moments of inertia in atomic units:
                           1         2         3
     Eigenvalues --  ******************************
           X            0.99990   0.00729  -0.01250
           Y           -0.00726   0.99997   0.00247
           Z            0.01251  -0.00238   0.99992
 This molecule is an asymmetric top.
 Rotational symmetry number  1.
 Warning -- assumption of classical behavior for rotation
           may cause significant error
 Rotational temperatures (Kelvin)      0.00529     0.00442     0.00405
 Rotational constants (GHZ):           0.11026     0.09205     0.08430
 Zero-point vibrational energy      15135.2 (Joules/Mol)
                                    3.61740 (Kcal/Mol)
 Warning -- explicit consideration of  21 degrees of freedom as
           vibrations may cause significant error
 Vibrational temperatures:     40.89    68.44    97.69   114.02   128.89
          (Kelvin)            136.07   136.43   143.25   153.38   165.23
                              171.34   184.17   196.61   204.19   212.44
                              217.26   234.40   239.64   249.03   267.32
                              280.01

 Zero-point correction=                           0.005765 (Hartree/Particle)
 Thermal correction to Energy=                    0.023287
 Thermal correction to Enthalpy=                  0.024231
 Thermal correction to Gibbs Free Energy=        -0.048554
 Sum of electronic and zero-point Energies=          -7517.808024
 Sum of electronic and thermal Energies=             -7517.790502
 Sum of electronic and thermal Enthalpies=           -7517.789557
 Sum of electronic and thermal Free Energies=        -7517.862343

                     E (Thermal)             CV                S
                      KCal/Mol        Cal/Mol-Kelvin    Cal/Mol-Kelvin
 Total                   14.613             46.397            153.190
 Electronic               0.000              0.000              0.000
 Translational            0.889              2.981             47.349
 Rotational               0.889              2.981             37.172
 Vibrational             12.835             40.436             68.669
 Vibration     1          0.593              1.984              5.937
 Vibration     2          0.595              1.979              4.916
 Vibration     3          0.598              1.970              4.213
 Vibration     4          0.600              1.963              3.909
 Vibration     5          0.602              1.957              3.669
 Vibration     6          0.603              1.953              3.563
 Vibration     7          0.603              1.953              3.558
 Vibration     8          0.604              1.949              3.463
 Vibration     9          0.605              1.944              3.330
 Vibration    10          0.608              1.937              3.185
 Vibration    11          0.609              1.933              3.115
 Vibration    12          0.611              1.925              2.976
 Vibration    13          0.614              1.917              2.850
 Vibration    14          0.615              1.911              2.778
 Vibration    15          0.617              1.905              2.702
 Vibration    16          0.618              1.902              2.660
 Vibration    17          0.623              1.888              2.516
 Vibration    18          0.624              1.884              2.474
 Vibration    19          0.627              1.876              2.402
 Vibration    20          0.632              1.859              2.269
 Vibration    21          0.635              1.847              2.183

 Normal termination of Gaussian 09 at Thu Mar  8 10:05:31 2018.
