 Gaussian 09, Revision D.01,
 Gaussian 09:  ES64L-G09RevD.01 24-Apr-2013

 ----------------------------------------------------------------------
 #p PBE1PBE/Def2TZVP scf=(maxcycle=768) opt=(cartesian,maxcycle=512) fr
 eq
 ----------------------------------------------------------------------

 ---------------------
 01Final_coords.xyz_03
 ---------------------
 Symbolic Z-matrix:
 Charge =  0 Multiplicity = 1

 SCF Done:  E(RPBE1PBE) =  -7517.81821087     A.U. after   16 cycles
 SCF Done:  E(RPBE1PBE) =  -7517.82390323     A.U. after   13 cycles
 SCF Done:  E(RPBE1PBE) =  -7517.82521122     A.U. after   13 cycles
 SCF Done:  E(RPBE1PBE) =  -7517.82540176     A.U. after   11 cycles
 SCF Done:  E(RPBE1PBE) =  -7517.82549978     A.U. after   11 cycles
 SCF Done:  E(RPBE1PBE) =  -7517.82553559     A.U. after   10 cycles
 SCF Done:  E(RPBE1PBE) =  -7517.82554691     A.U. after    9 cycles
 SCF Done:  E(RPBE1PBE) =  -7517.82555245     A.U. after    9 cycles
 SCF Done:  E(RPBE1PBE) =  -7517.82555650     A.U. after    9 cycles
 SCF Done:  E(RPBE1PBE) =  -7517.82555921     A.U. after    9 cycles
 SCF Done:  E(RPBE1PBE) =  -7517.82556142     A.U. after    8 cycles
 Optimization completed.
    -- Stationary point found.
 Normal termination of Gaussian 09 at Tue Mar  6 14:35:11 2018.

 ----------------------------------------------------------------------
 #P Geom=AllCheck Guess=TCheck SCRF=Check GenChk RPBE1PBE/def2TZVP Freq
 ----------------------------------------------------------------------

 Structure from the checkpoint file:  "Isomer_03.chk"
 ---------------------
 01Final_coords.xyz_03
 ---------------------
 Charge =  0 Multiplicity = 1

                         Standard orientation:
 ---------------------------------------------------------------------
 Center     Atomic      Atomic             Coordinates (Angstroms)
 Number     Number       Type             X           Y           Z
 ---------------------------------------------------------------------
      1         32           0        0.755546   -1.190294   -1.908811
      2         32           0        0.983851   -1.942072    1.245414
      3         83           0       -1.369066   -2.121651   -0.306872
      4         83           0        2.781351   -0.347588   -0.151667
      5         50           0       -1.201244   -0.597638    2.333026
      6         32           0        1.257859    0.718471    1.973013
      7         50           0        1.142423    1.897412   -1.142789
      8         83           0       -1.019760    2.063784    0.909948
      9         83           0       -1.512660    0.553117   -1.673331
 ---------------------------------------------------------------------

 SCF Done:  E(RPBE1PBE) =  -7517.82556142     A.U. after    1 cycles

 The electronic state is 1-A.
 Alpha  occ. eigenvalues -- -399.10256-399.09559-399.09460 -49.91852 -49.91194
 Alpha  occ. eigenvalues --  -49.91084 -44.39928 -44.39898 -44.39887 -44.39278
 Alpha  occ. eigenvalues --  -44.39245 -44.39208 -44.39164 -44.39137 -44.39103
 Alpha  occ. eigenvalues --   -6.28377  -6.27743  -6.27623  -6.02113  -6.01667
 Alpha  occ. eigenvalues --   -6.01292  -6.01245  -5.14153  -5.12958  -4.43801
 Alpha  occ. eigenvalues --   -4.43723  -4.43669  -4.43207  -4.43130  -4.43070
 Alpha  occ. eigenvalues --   -4.43008  -4.42977  -4.42870  -3.74389  -3.74194
 Alpha  occ. eigenvalues --   -3.74176  -3.73909  -3.73839  -3.73689  -3.73638
 Alpha  occ. eigenvalues --   -3.73579  -3.73372  -3.73335  -3.73290  -3.73233
 Alpha  occ. eigenvalues --   -3.47364  -3.47272  -3.47181  -3.46186  -3.46103
 Alpha  occ. eigenvalues --   -3.45948  -1.23265  -1.23237  -1.23188  -1.23156
 Alpha  occ. eigenvalues --   -1.23111  -1.22715  -1.22685  -1.22617  -1.22563
 Alpha  occ. eigenvalues --   -1.22547  -1.22501  -1.22478  -1.22368  -1.22356
 Alpha  occ. eigenvalues --   -1.22277  -1.08464  -1.08165  -1.08099  -1.07925
 Alpha  occ. eigenvalues --   -1.07795  -1.07669  -1.07628  -1.07533  -1.07508
 Alpha  occ. eigenvalues --   -1.07334  -1.07232  -1.07219  -1.07149  -1.07122
 Alpha  occ. eigenvalues --   -1.07061  -1.06943  -1.06910  -1.06883  -1.06836
 Alpha  occ. eigenvalues --   -1.06791  -1.03541  -1.03531  -1.03446  -1.03391
 Alpha  occ. eigenvalues --   -1.03345  -1.02414  -1.02390  -1.02333  -1.02236
 Alpha  occ. eigenvalues --   -1.02141  -0.67513  -0.62731  -0.61230  -0.58015
 Alpha  occ. eigenvalues --   -0.50522  -0.46090  -0.44757  -0.42872  -0.41400
 Alpha  occ. eigenvalues --   -0.29411  -0.27643  -0.26908  -0.25932  -0.25750
 Alpha  occ. eigenvalues --   -0.24699  -0.23715  -0.23353  -0.22004  -0.21410
 Alpha  occ. eigenvalues --   -0.20450
 Alpha virt. eigenvalues --   -0.07507  -0.07374  -0.06502  -0.06057  -0.05108
 Alpha virt. eigenvalues --   -0.04902  -0.04691  -0.04051  -0.03662  -0.03006
 Alpha virt. eigenvalues --   -0.02895  -0.02146  -0.01691   0.05032   0.05250

 Mulliken charges:
               1
     1  Ge  -0.055854
     2  Ge  -0.043409
     3  Bi   0.019799
     4  Bi   0.009982
     5  Sn   0.028320
     6  Ge  -0.069793
     7  Sn   0.077332
     8  Bi  -0.005059
     9  Bi   0.038683
 Sum of Mulliken charges =   0.00000

 Dipole moment (field-independent basis, Debye):
    X=             -0.5780    Y=              0.6481    Z=             -1.0113  Tot=              1.3330
 Quadrupole moment (field-independent basis, Debye-Ang):
   XX=           -212.6591   YY=           -218.5606   ZZ=           -222.1191
   XY=              0.4756   XZ=             -0.6332   YZ=             -0.6034

  Exact polarizability: 381.491   5.551 378.716 -11.469  -9.019 376.183
 Approx polarizability:1190.691   9.4871157.740 -43.447 -21.7791165.588

                      1                      2                      3
                      A                      A                      A
 Frequencies --     22.2278                45.1080                68.9106
 Red. masses --    147.1440               120.4286               144.3710
 Frc consts  --      0.0428                 0.1444                 0.4039
 IR Inten    --      0.0870                 0.1489                 0.0507

                      4                      5                      6
                      A                      A                      A
 Frequencies --     76.0427                91.8490                98.2027
 Red. masses --    147.7756               143.4075               129.8159
 Frc consts  --      0.5035                 0.7128                 0.7376
 IR Inten    --      0.0699                 0.0556                 0.0570

                      7                      8                      9
                      A                      A                      A
 Frequencies --    105.2612               109.1546               112.3329
 Red. masses --    164.9066               124.8436               129.4630
 Frc consts  --      1.0765                 0.8764                 0.9625
 IR Inten    --      0.0181                 0.0119                 0.0478

                     10                     11                     12
                      A                      A                      A
 Frequencies --    115.2616               119.1394               121.5815
 Red. masses --    130.6425               103.1823               118.6609
 Frc consts  --      1.0226                 0.8629                 1.0335
 IR Inten    --      0.4070                 0.1656                 0.4162

                     13                     14                     15
                      A                      A                      A
 Frequencies --    132.3363               143.9309               146.1756
 Red. masses --    121.9528                92.1585                94.3226
 Frc consts  --      1.2583                 1.1248                 1.1875
 IR Inten    --      0.4060                 0.0325                 0.2147

                     16                     17                     18
                      A                      A                      A
 Frequencies --    148.5544               158.4091               174.1517
 Red. masses --    112.6128                85.4147                82.3365
 Frc consts  --      1.4642                 1.2628                 1.4713
 IR Inten    --      0.4017                 0.0146                 0.0871

                     19                     20                     21
                      A                      A                      A
 Frequencies --    179.5795               180.2265               197.9684
 Red. masses --     87.4711                83.3550                86.8079
 Frc consts  --      1.6620                 1.5952                 2.0045
 IR Inten    --      0.4178                 0.1881                 0.5695

 - Thermochemistry -
 -------------------
 Temperature   298.150 Kelvin.  Pressure   1.00000 Atm.
 Atom     1 has atomic number 32 and mass  73.92118

 Molecular mass:  1293.48874 amu.
 Principal axes and moments of inertia in atomic units:
                           1         2         3
     Eigenvalues --  ******************************
           X            0.99961   0.02146  -0.01768
           Y           -0.02209   0.99910  -0.03622
           Z            0.01689   0.03660   0.99919
 This molecule is an asymmetric top.
 Rotational symmetry number  1.
 Warning -- assumption of classical behavior for rotation
           may cause significant error
 Rotational temperatures (Kelvin)      0.00480     0.00440     0.00400
 Rotational constants (GHZ):           0.09992     0.09176     0.08329
 Zero-point vibrational energy      15230.9 (Joules/Mol)
                                    3.64027 (Kcal/Mol)
 Warning -- explicit consideration of  21 degrees of freedom as
           vibrations may cause significant error
 Vibrational temperatures:     31.98    64.90    99.15   109.41   132.15
          (Kelvin)            141.29   151.45   157.05   161.62   165.84
                              171.41   174.93   190.40   207.08   210.31
                              213.74   227.92   250.57   258.37   259.31
                              284.83

 Zero-point correction=                           0.005801 (Hartree/Particle)
 Thermal correction to Energy=                    0.023296
 Thermal correction to Enthalpy=                  0.024240
 Thermal correction to Gibbs Free Energy=        -0.048665
 Sum of electronic and zero-point Energies=          -7517.819760
 Sum of electronic and thermal Energies=             -7517.802265
 Sum of electronic and thermal Enthalpies=           -7517.801321
 Sum of electronic and thermal Free Energies=        -7517.874227

                     E (Thermal)             CV                S
                      KCal/Mol        Cal/Mol-Kelvin    Cal/Mol-Kelvin
 Total                   14.619             46.379            153.443
 Electronic               0.000              0.000              0.000
 Translational            0.889              2.981             47.349
 Rotational               0.889              2.981             37.285
 Vibrational             12.841             40.417             68.809
 Vibration     1          0.593              1.985              6.425
 Vibration     2          0.595              1.979              5.021
 Vibration     3          0.598              1.969              4.184
 Vibration     4          0.599              1.965              3.991
 Vibration     5          0.602              1.955              3.620
 Vibration     6          0.604              1.950              3.490
 Vibration     7          0.605              1.945              3.354
 Vibration     8          0.606              1.942              3.284
 Vibration     9          0.607              1.939              3.228
 Vibration    10          0.608              1.937              3.178
 Vibration    11          0.609              1.933              3.114
 Vibration    12          0.609              1.931              3.075
 Vibration    13          0.612              1.921              2.912
 Vibration    14          0.616              1.909              2.751
 Vibration    15          0.617              1.907              2.721
 Vibration    16          0.618              1.904              2.691
 Vibration    17          0.621              1.893              2.569
 Vibration    18          0.627              1.874              2.390
 Vibration    19          0.629              1.867              2.333
 Vibration    20          0.629              1.867              2.326
 Vibration    21          0.637              1.843              2.152

 Normal termination of Gaussian 09 at Tue Mar  6 15:48:29 2018.
