 Gaussian 09, Revision D.01,
 Gaussian 09:  ES64L-G09RevD.01 24-Apr-2013

 ----------------------------------------------------------------------
 #p PBE1PBE/Def2TZVP scf=(maxcycle=768) opt=(cartesian,maxcycle=512) fr
 eq
 ----------------------------------------------------------------------

 ---------------------
 01Final_coords.xyz_04
 ---------------------
 Symbolic Z-matrix:
 Charge =  0 Multiplicity = 1

 SCF Done:  E(RPBE1PBE) =  -7517.81820614     A.U. after   16 cycles
 SCF Done:  E(RPBE1PBE) =  -7517.82390837     A.U. after   13 cycles
 SCF Done:  E(RPBE1PBE) =  -7517.82514424     A.U. after   12 cycles
 SCF Done:  E(RPBE1PBE) =  -7517.82529797     A.U. after   12 cycles
 SCF Done:  E(RPBE1PBE) =  -7517.82536519     A.U. after   11 cycles
 SCF Done:  E(RPBE1PBE) =  -7517.82537858     A.U. after   10 cycles
 SCF Done:  E(RPBE1PBE) =  -7517.82538378     A.U. after    9 cycles
 SCF Done:  E(RPBE1PBE) =  -7517.82538727     A.U. after    9 cycles
 SCF Done:  E(RPBE1PBE) =  -7517.82539271     A.U. after   10 cycles
 Optimization completed.
    -- Stationary point found.
 Normal termination of Gaussian 09 at Tue Mar  6 15:35:59 2018.

 ----------------------------------------------------------------------
 #P Geom=AllCheck Guess=TCheck SCRF=Check GenChk RPBE1PBE/def2TZVP Freq
 ----------------------------------------------------------------------

 Structure from the checkpoint file:  "Isomer_04.chk"
 ---------------------
 01Final_coords.xyz_04
 ---------------------
 Charge =  0 Multiplicity = 1

                         Standard orientation:
 ---------------------------------------------------------------------
 Center     Atomic      Atomic             Coordinates (Angstroms)
 Number     Number       Type             X           Y           Z
 ---------------------------------------------------------------------
      1         32           0        0.498790    1.028530    2.332954
      2         83           0        0.946097    2.306729   -0.232616
      3         32           0       -0.645923    0.790167   -2.056663
      4         83           0        1.488883   -1.448024    1.393993
      5         83           0        1.922085   -0.274053   -1.390608
      6         50           0       -0.242482   -2.302153   -0.892874
      7         32           0       -1.242574   -0.928923    1.897249
      8         83           0       -2.613629   -0.619074   -0.599246
      9         50           0       -1.762210    1.789839    0.877079
 ---------------------------------------------------------------------

 SCF Done:  E(RPBE1PBE) =  -7517.82539271     A.U. after    1 cycles

 The electronic state is 1-A.
 Alpha  occ. eigenvalues -- -399.10223-399.09449-399.08519 -49.91814 -49.91070
 Alpha  occ. eigenvalues --  -49.90176 -44.39891 -44.39860 -44.39848 -44.39152
 Alpha  occ. eigenvalues --  -44.39127 -44.39084 -44.38247 -44.38228 -44.38196
 Alpha  occ. eigenvalues --   -6.28333  -6.27607  -6.26719  -6.02074  -6.01624
 Alpha  occ. eigenvalues --   -6.01463  -6.01378  -5.14227  -5.13672  -4.43761
 Alpha  occ. eigenvalues --   -4.43678  -4.43619  -4.43063  -4.42998  -4.42839
 Alpha  occ. eigenvalues --   -4.42167  -4.42086  -4.41985  -3.74346  -3.74183
 Alpha  occ. eigenvalues --   -3.74112  -3.73851  -3.73818  -3.73792  -3.73721
 Alpha  occ. eigenvalues --   -3.73627  -3.73558  -3.73479  -3.73466  -3.73355
 Alpha  occ. eigenvalues --   -3.47443  -3.47341  -3.47257  -3.46915  -3.46838
 Alpha  occ. eigenvalues --   -3.46635  -1.23224  -1.23193  -1.23126  -1.23107
 Alpha  occ. eigenvalues --   -1.23057  -1.22563  -1.22532  -1.22410  -1.22400
 Alpha  occ. eigenvalues --   -1.22318  -1.21634  -1.21614  -1.21550  -1.21458
 Alpha  occ. eigenvalues --   -1.21426  -1.08502  -1.08094  -1.08051  -1.07997
 Alpha  occ. eigenvalues --   -1.07808  -1.07652  -1.07588  -1.07502  -1.07465
 Alpha  occ. eigenvalues --   -1.07420  -1.07331  -1.07320  -1.07276  -1.07238
 Alpha  occ. eigenvalues --   -1.07179  -1.07109  -1.07039  -1.07011  -1.06954
 Alpha  occ. eigenvalues --   -1.06912  -1.03617  -1.03601  -1.03522  -1.03465
 Alpha  occ. eigenvalues --   -1.03418  -1.03148  -1.03130  -1.02975  -1.02953
 Alpha  occ. eigenvalues --   -1.02853  -0.67509  -0.62372  -0.61223  -0.58509
 Alpha  occ. eigenvalues --   -0.50229  -0.46053  -0.44824  -0.42496  -0.41874
 Alpha  occ. eigenvalues --   -0.29545  -0.27656  -0.26522  -0.26078  -0.25571
 Alpha  occ. eigenvalues --   -0.24659  -0.23708  -0.23292  -0.22394  -0.21263
 Alpha  occ. eigenvalues --   -0.20555
 Alpha virt. eigenvalues --   -0.08135  -0.07444  -0.06346  -0.05817  -0.05068
 Alpha virt. eigenvalues --   -0.04836  -0.04551  -0.03886  -0.03711  -0.03302
 Alpha virt. eigenvalues --   -0.02974  -0.02130  -0.01603   0.04529   0.05805

 Mulliken charges:
               1
     1  Ge  -0.132649
     2  Bi   0.044361
     3  Ge  -0.071203
     4  Bi   0.042140
     5  Bi   0.017988
     6  Sn   0.080400
     7  Ge  -0.060429
     8  Bi  -0.004323
     9  Sn   0.083715
 Sum of Mulliken charges =   0.00000

 Dipole moment (field-independent basis, Debye):
    X=              0.4949    Y=             -0.4792    Z=             -1.1313  Tot=              1.3246
 Quadrupole moment (field-independent basis, Debye-Ang):
   XX=           -212.4528   YY=           -216.7945   ZZ=           -224.2562
   XY=             -0.5627   XZ=             -0.1781   YZ=              0.7122

  Exact polarizability: 384.754  -4.697 387.432  -1.807  10.934 359.923
 Approx polarizability:1194.658  -2.8731175.290   9.930  41.2531132.849

                      1                      2                      3
                      A                      A                      A
 Frequencies --     26.0339                48.9573                68.3201
 Red. masses --    147.0856               136.7172               139.9121
 Frc consts  --      0.0587                 0.1931                 0.3848
 IR Inten    --      0.0051                 0.1275                 0.0505

                      4                      5                      6
                      A                      A                      A
 Frequencies --     77.7686                92.1772                97.3655
 Red. masses --    153.6975               136.9478               121.1817
 Frc consts  --      0.5477                 0.6856                 0.6769
 IR Inten    --      0.0122                 0.0072                 0.0511

                      7                      8                      9
                      A                      A                      A
 Frequencies --    101.0043               105.9473               113.3821
 Red. masses --    149.8987               132.6615               108.8925
 Frc consts  --      0.9010                 0.8774                 0.8248
 IR Inten    --      0.1028                 0.1187                 0.3201

                     10                     11                     12
                      A                      A                      A
 Frequencies --    118.7457               123.2080               128.7480
 Red. masses --    167.5744               103.3394               107.1158
 Frc consts  --      1.3922                 0.9243                 1.0461
 IR Inten    --      0.0831                 0.1544                 0.0891

                     13                     14                     15
                      A                      A                      A
 Frequencies --    137.7856               143.4838               146.3407
 Red. masses --    129.8011                97.8857                99.3513
 Frc consts  --      1.4519                 1.1873                 1.2536
 IR Inten    --      1.0232                 0.0334                 0.1418

                     16                     17                     18
                      A                      A                      A
 Frequencies --    149.7537               154.0244               166.0371
 Red. masses --     95.7174                88.9692                86.2828
 Frc consts  --      1.2647                 1.2436                 1.4015
 IR Inten    --      0.0856                 0.0490                 0.0234

                     19                     20                     21
                      A                      A                      A
 Frequencies --    177.1275               183.4873               192.0736
 Red. masses --     88.4868                87.0663                79.7215
 Frc consts  --      1.6357                 1.7271                 1.7328
 IR Inten    --      0.7872                 0.3848                 0.3683

 - Thermochemistry -
 -------------------
 Temperature   298.150 Kelvin.  Pressure   1.00000 Atm.
 Atom     1 has atomic number 32 and mass  73.92118

 Molecular mass:  1293.48874 amu.
 Principal axes and moments of inertia in atomic units:
                           1         2         3
     Eigenvalues --  ******************************
           X            0.99970  -0.02329  -0.00784
           Y            0.02351   0.99930   0.02904
           Z            0.00716  -0.02921   0.99955
 This molecule is an asymmetric top.
 Rotational symmetry number  1.
 Warning -- assumption of classical behavior for rotation
           may cause significant error
 Rotational temperatures (Kelvin)      0.00495     0.00445     0.00390
 Rotational constants (GHZ):           0.10317     0.09277     0.08121
 Zero-point vibrational energy      15263.0 (Joules/Mol)
                                    3.64794 (Kcal/Mol)
 Warning -- explicit consideration of  21 degrees of freedom as
           vibrations may cause significant error
 Vibrational temperatures:     37.46    70.44    98.30   111.89   132.62
          (Kelvin)            140.09   145.32   152.43   163.13   170.85
                              177.27   185.24   198.24   206.44   210.55
                              215.46   221.61   238.89   254.85   264.00
                              276.35

 Zero-point correction=                           0.005813 (Hartree/Particle)
 Thermal correction to Energy=                    0.023294
 Thermal correction to Enthalpy=                  0.024238
 Thermal correction to Gibbs Free Energy=        -0.048420
 Sum of electronic and zero-point Energies=          -7517.819579
 Sum of electronic and thermal Energies=             -7517.802099
 Sum of electronic and thermal Enthalpies=           -7517.801155
 Sum of electronic and thermal Free Energies=        -7517.873813

                     E (Thermal)             CV                S
                      KCal/Mol        Cal/Mol-Kelvin    Cal/Mol-Kelvin
 Total                   14.617             46.383            152.922
 Electronic               0.000              0.000              0.000
 Translational            0.889              2.981             47.349
 Rotational               0.889              2.981             37.267
 Vibrational             12.839             40.422             68.305
 Vibration     1          0.593              1.985              6.111
 Vibration     2          0.595              1.978              4.859
 Vibration     3          0.598              1.969              4.201
 Vibration     4          0.599              1.964              3.946
 Vibration     5          0.602              1.955              3.613
 Vibration     6          0.603              1.951              3.506
 Vibration     7          0.604              1.948              3.435
 Vibration     8          0.605              1.944              3.342
 Vibration     9          0.607              1.938              3.210
 Vibration    10          0.609              1.934              3.121
 Vibration    11          0.610              1.930              3.049
 Vibration    12          0.611              1.924              2.965
 Vibration    13          0.614              1.916              2.834
 Vibration    14          0.616              1.910              2.757
 Vibration    15          0.617              1.907              2.719
 Vibration    16          0.618              1.903              2.675
 Vibration    17          0.620              1.898              2.622
 Vibration    18          0.624              1.884              2.480
 Vibration    19          0.628              1.871              2.358
 Vibration    20          0.631              1.862              2.293
 Vibration    21          0.634              1.851              2.208

 Normal termination of Gaussian 09 at Tue Mar  6 17:47:34 2018.
