 Gaussian 09, Revision D.01,
 Gaussian 09:  ES64L-G09RevD.01 24-Apr-2013

 ----------------------------------------------------------------------
 #p PBE1PBE/Def2TZVP scf=(maxcycle=768) opt=(cartesian,maxcycle=512) fr
 eq
 ----------------------------------------------------------------------

 ---------------------
 01Final_coords.xyz_26
 ---------------------
 Symbolic Z-matrix:
 Charge =  0 Multiplicity = 1

 SCF Done:  E(RPBE1PBE) =  -7517.81150642     A.U. after   17 cycles
 SCF Done:  E(RPBE1PBE) =  -7517.81710750     A.U. after   13 cycles
 SCF Done:  E(RPBE1PBE) =  -7517.81854131     A.U. after   12 cycles
 SCF Done:  E(RPBE1PBE) =  -7517.81876892     A.U. after   12 cycles
 SCF Done:  E(RPBE1PBE) =  -7517.81897915     A.U. after   12 cycles
 SCF Done:  E(RPBE1PBE) =  -7517.81901019     A.U. after   10 cycles
 SCF Done:  E(RPBE1PBE) =  -7517.81902112     A.U. after    9 cycles
 SCF Done:  E(RPBE1PBE) =  -7517.81902433     A.U. after    9 cycles
 SCF Done:  E(RPBE1PBE) =  -7517.81902768     A.U. after    9 cycles
 SCF Done:  E(RPBE1PBE) =  -7517.81902993     A.U. after    9 cycles
 SCF Done:  E(RPBE1PBE) =  -7517.81903106     A.U. after    9 cycles
 Optimization completed.
    -- Stationary point found.
 Normal termination of Gaussian 09 at Tue Mar  6 14:41:21 2018.

 ----------------------------------------------------------------------
 #P Geom=AllCheck Guess=TCheck SCRF=Check GenChk RPBE1PBE/def2TZVP Freq
 ----------------------------------------------------------------------

 Structure from the checkpoint file:  "Isomer_26.chk"
 ---------------------
 01Final_coords.xyz_26
 ---------------------
 Charge =  0 Multiplicity = 1

                         Standard orientation:
 ---------------------------------------------------------------------
 Center     Atomic      Atomic             Coordinates (Angstroms)
 Number     Number       Type             X           Y           Z
 ---------------------------------------------------------------------
      1         50           0        1.824093   -2.076363   -1.328099
      2         50           0        0.179881    0.699387    2.430673
      3         83           0        2.349405    0.290109    0.398522
      4         32           0        0.656865   -1.992397    1.261548
      5         83           0        0.218500    2.339500   -0.153176
      6         83           0       -1.965545    0.642676   -1.312572
      7         83           0       -1.967439   -1.025816    1.246520
      8         32           0        0.650244    0.301972   -2.258036
      9         32           0       -0.897645   -1.984827   -1.191330
 ---------------------------------------------------------------------

 SCF Done:  E(RPBE1PBE) =  -7517.81903106     A.U. after    1 cycles

 The electronic state is 1-A.
 Alpha  occ. eigenvalues -- -399.10012-399.09487-399.09461 -49.91609 -49.91123
 Alpha  occ. eigenvalues --  -49.91078 -44.39705 -44.39664 -44.39616 -44.39203
 Alpha  occ. eigenvalues --  -44.39179 -44.39162 -44.39134 -44.39127 -44.39099
 Alpha  occ. eigenvalues --   -6.28135  -6.27671  -6.27610  -6.02308  -6.02144
 Alpha  occ. eigenvalues --   -6.01614  -6.01292  -5.13148  -5.12971  -4.43623
 Alpha  occ. eigenvalues --   -4.43507  -4.43341  -4.43128  -4.43074  -4.43065
 Alpha  occ. eigenvalues --   -4.42962  -4.42904  -4.42870  -3.74617  -3.74455
 Alpha  occ. eigenvalues --   -3.74417  -3.74320  -3.74218  -3.74194  -3.73931
 Alpha  occ. eigenvalues --   -3.73850  -3.73635  -3.73474  -3.73428  -3.73241
 Alpha  occ. eigenvalues --   -3.46401  -3.46311  -3.46185  -3.46137  -3.46103
 Alpha  occ. eigenvalues --   -3.45942  -1.23102  -1.23066  -1.22925  -1.22841
 Alpha  occ. eigenvalues --   -1.22835  -1.22640  -1.22610  -1.22538  -1.22514
 Alpha  occ. eigenvalues --   -1.22500  -1.22442  -1.22402  -1.22375  -1.22328
 Alpha  occ. eigenvalues --   -1.22290  -1.08746  -1.08461  -1.08332  -1.08247
 Alpha  occ. eigenvalues --   -1.08166  -1.08120  -1.08039  -1.07975  -1.07941
 Alpha  occ. eigenvalues --   -1.07829  -1.07491  -1.07341  -1.07294  -1.07241
 Alpha  occ. eigenvalues --   -1.07191  -1.07093  -1.07040  -1.06949  -1.06904
 Alpha  occ. eigenvalues --   -1.06844  -1.02667  -1.02626  -1.02546  -1.02453
 Alpha  occ. eigenvalues --   -1.02438  -1.02414  -1.02350  -1.02248  -1.02176
 Alpha  occ. eigenvalues --   -1.02136  -0.68036  -0.62911  -0.60805  -0.56669
 Alpha  occ. eigenvalues --   -0.52228  -0.47310  -0.44438  -0.42468  -0.40207
 Alpha  occ. eigenvalues --   -0.29811  -0.27902  -0.27343  -0.26030  -0.25237
 Alpha  occ. eigenvalues --   -0.24474  -0.23781  -0.23089  -0.22605  -0.20847
 Alpha  occ. eigenvalues --   -0.19890
 Alpha virt. eigenvalues --   -0.07577  -0.06778  -0.06454  -0.06123  -0.05510
 Alpha virt. eigenvalues --   -0.05219  -0.04677  -0.04297  -0.04033  -0.03653
 Alpha virt. eigenvalues --   -0.02599  -0.02194  -0.00469   0.04833   0.04946

 Mulliken charges:
               1
     1  Sn  -0.027945
     2  Sn  -0.016550
     3  Bi   0.111702
     4  Ge  -0.060075
     5  Bi   0.002775
     6  Bi   0.034976
     7  Bi   0.017433
     8  Ge  -0.046804
     9  Ge  -0.015512
 Sum of Mulliken charges =   0.00000

 Dipole moment (field-independent basis, Debye):
    X=             -0.4010    Y=              1.3557    Z=              0.1672  Tot=              1.4236
 Quadrupole moment (field-independent basis, Debye-Ang):
   XX=           -211.9726   YY=           -219.0004   ZZ=           -222.2389
   XY=             -2.0510   XZ=             -0.4360   YZ=              1.0179

  Exact polarizability: 380.039  -7.396 377.527  -6.331  12.709 378.747
 Approx polarizability:1180.346 -33.7111175.495 -34.919  38.4611176.863

                      1                      2                      3
                      A                      A                      A
 Frequencies --     38.8937                58.3983                75.1424
 Red. masses --    161.5964               137.1396               132.5031
 Frc consts  --      0.1440                 0.2756                 0.4408
 IR Inten    --      0.0483                 0.0249                 0.0069

                      4                      5                      6
                      A                      A                      A
 Frequencies --     82.5851                89.6750                96.1191
 Red. masses --    150.7793               145.5810               111.8288
 Frc consts  --      0.6059                 0.6898                 0.6087
 IR Inten    --      0.0126                 0.0658                 0.2413

                      7                      8                      9
                      A                      A                      A
 Frequencies --    100.0119               104.8536               110.1093
 Red. masses --    140.5473               107.5555               144.8493
 Frc consts  --      0.8283                 0.6967                 1.0347
 IR Inten    --      0.1387                 0.1373                 0.0765

                     10                     11                     12
                      A                      A                      A
 Frequencies --    113.1284               118.1083               122.8042
 Red. masses --    126.6536               138.4944               113.6559
 Frc consts  --      0.9550                 1.1383                 1.0099
 IR Inten    --      0.1658                 0.1007                 0.3939

                     13                     14                     15
                      A                      A                      A
 Frequencies --    127.4059               140.8794               145.2765
 Red. masses --    120.6876                99.9455               112.5891
 Frc consts  --      1.1542                 1.1687                 1.4000
 IR Inten    --      0.1895                 0.0227                 0.5002

                     16                     17                     18
                      A                      A                      A
 Frequencies --    152.9796               156.1340               166.0430
 Red. masses --     82.0499                88.3018                86.9167
 Frc consts  --      1.1313                 1.2683                 1.4119
 IR Inten    --      0.0203                 0.2036                 0.0734

                     19                     20                     21
                      A                      A                      A
 Frequencies --    174.5512               179.1997               201.0445
 Red. masses --     84.2640                86.7343                86.7523
 Frc consts  --      1.5126                 1.6410                 2.0659
 IR Inten    --      0.6271                 0.1435                 1.8446

 - Thermochemistry -
 -------------------
 Temperature   298.150 Kelvin.  Pressure   1.00000 Atm.
 Atom     1 has atomic number 50 and mass 117.90180

 Molecular mass:  1293.48874 amu.
 Principal axes and moments of inertia in atomic units:
                           1         2         3
     Eigenvalues --  ******************************
           X            0.99925  -0.03600  -0.01395
           Y            0.03696   0.99640   0.07634
           Z            0.01115  -0.07680   0.99698
 This molecule is an asymmetric top.
 Rotational symmetry number  1.
 Warning -- assumption of classical behavior for rotation
           may cause significant error
 Rotational temperatures (Kelvin)      0.00500     0.00439     0.00409
 Rotational constants (GHZ):           0.10421     0.09149     0.08530
 Zero-point vibrational energy      15272.4 (Joules/Mol)
                                    3.65019 (Kcal/Mol)
 Warning -- explicit consideration of  21 degrees of freedom as
           vibrations may cause significant error
 Vibrational temperatures:     55.96    84.02   108.11   118.82   129.02
          (Kelvin)            138.29   143.89   150.86   158.42   162.77
                              169.93   176.69   183.31   202.69   209.02
                              220.10   224.64   238.90   251.14   257.83
                              289.26

 Zero-point correction=                           0.005817 (Hartree/Particle)
 Thermal correction to Energy=                    0.023287
 Thermal correction to Enthalpy=                  0.024232
 Thermal correction to Gibbs Free Energy=        -0.047983
 Sum of electronic and zero-point Energies=          -7517.813214
 Sum of electronic and thermal Energies=             -7517.795744
 Sum of electronic and thermal Enthalpies=           -7517.794799
 Sum of electronic and thermal Free Energies=        -7517.867014

                     E (Thermal)             CV                S
                      KCal/Mol        Cal/Mol-Kelvin    Cal/Mol-Kelvin
 Total                   14.613             46.396            151.989
 Electronic               0.000              0.000              0.000
 Translational            0.889              2.981             47.349
 Rotational               0.889              2.981             37.223
 Vibrational             12.836             40.434             67.418
 Vibration     1          0.594              1.981              5.315
 Vibration     2          0.596              1.974              4.511
 Vibration     3          0.599              1.966              4.014
 Vibration     4          0.600              1.961              3.828
 Vibration     5          0.602              1.956              3.667
 Vibration     6          0.603              1.952              3.532
 Vibration     7          0.604              1.949              3.454
 Vibration     8          0.605              1.945              3.362
 Vibration     9          0.606              1.941              3.267
 Vibration    10          0.607              1.939              3.215
 Vibration    11          0.608              1.934              3.131
 Vibration    12          0.610              1.930              3.056
 Vibration    13          0.611              1.926              2.985
 Vibration    14          0.615              1.912              2.792
 Vibration    15          0.617              1.908              2.733
 Vibration    16          0.619              1.899              2.635
 Vibration    17          0.620              1.896              2.596
 Vibration    18          0.624              1.884              2.480
 Vibration    19          0.627              1.874              2.386
 Vibration    20          0.629              1.868              2.337
 Vibration    21          0.638              1.838              2.124

 Normal termination of Gaussian 09 at Tue Mar  6 15:54:25 2018.
