 Gaussian 09, Revision D.01,
 Gaussian 09:  ES64L-G09RevD.01 24-Apr-2013

 ----------------------------------------------------------------------
 #p PBE1PBE/Def2TZVP scf=(maxcycle=768) opt=(cartesian,maxcycle=512) fr
 eq
 ----------------------------------------------------------------------

 ---------------------
 01Final_coords.xyz_30
 ---------------------
 Symbolic Z-matrix:
 Charge =  0 Multiplicity = 1

 SCF Done:  E(RPBE1PBE) =  -7517.80960828     A.U. after   16 cycles
 SCF Done:  E(RPBE1PBE) =  -7517.81524273     A.U. after   13 cycles
 SCF Done:  E(RPBE1PBE) =  -7517.81662741     A.U. after   12 cycles
 SCF Done:  E(RPBE1PBE) =  -7517.81680289     A.U. after   12 cycles
 SCF Done:  E(RPBE1PBE) =  -7517.81694468     A.U. after   12 cycles
 SCF Done:  E(RPBE1PBE) =  -7517.81696725     A.U. after   10 cycles
 SCF Done:  E(RPBE1PBE) =  -7517.81697613     A.U. after    9 cycles
 SCF Done:  E(RPBE1PBE) =  -7517.81698067     A.U. after    9 cycles
 SCF Done:  E(RPBE1PBE) =  -7517.81698265     A.U. after    9 cycles
 SCF Done:  E(RPBE1PBE) =  -7517.81698363     A.U. after    9 cycles
 Optimization completed.
    -- Stationary point found.
 Normal termination of Gaussian 09 at Tue Mar  6 15:46:20 2018.

 ----------------------------------------------------------------------
 #P Geom=AllCheck Guess=TCheck SCRF=Check GenChk RPBE1PBE/def2TZVP Freq
 ----------------------------------------------------------------------

 Structure from the checkpoint file:  "Isomer_30.chk"
 ---------------------
 01Final_coords.xyz_30
 ---------------------
 Charge =  0 Multiplicity = 1

                         Standard orientation:
 ---------------------------------------------------------------------
 Center     Atomic      Atomic             Coordinates (Angstroms)
 Number     Number       Type             X           Y           Z
 ---------------------------------------------------------------------
      1         50           0        1.097482    2.115450   -0.933112
      2         83           0       -0.322828   -2.373746   -0.172756
      3         83           0        1.864610    0.613671    1.551669
      4         83           0       -2.411414   -0.313485    0.397459
      5         32           0       -0.688161    1.776844    1.555515
      6         32           0       -0.649935   -0.220749   -2.188352
      7         83           0        1.955004   -0.753428   -1.198714
      8         50           0       -1.789506    2.142697   -1.101240
      9         32           0       -0.395799   -0.876952    2.313209
 ---------------------------------------------------------------------

 SCF Done:  E(RPBE1PBE) =  -7517.81698363     A.U. after    1 cycles

 The electronic state is 1-A.
 Alpha  occ. eigenvalues -- -399.09997-399.09425-399.08989 -49.91588 -49.91038
 Alpha  occ. eigenvalues --  -49.90624 -44.39682 -44.39646 -44.39595 -44.39121
 Alpha  occ. eigenvalues --  -44.39086 -44.39062 -44.38692 -44.38683 -44.38642
 Alpha  occ. eigenvalues --   -6.28104  -6.27569  -6.27159  -6.02558  -6.02012
 Alpha  occ. eigenvalues --   -6.01847  -6.01302  -5.13448  -5.13060  -4.43584
 Alpha  occ. eigenvalues --   -4.43480  -4.43308  -4.43028  -4.42916  -4.42835
 Alpha  occ. eigenvalues --   -4.42595  -4.42544  -4.42406  -3.74861  -3.74689
 Alpha  occ. eigenvalues --   -3.74570  -3.74309  -3.74159  -3.74093  -3.74084
 Alpha  occ. eigenvalues --   -3.74060  -3.73721  -3.73642  -3.73417  -3.73276
 Alpha  occ. eigenvalues --   -3.46687  -3.46605  -3.46417  -3.46296  -3.46235
 Alpha  occ. eigenvalues --   -3.46010  -1.23059  -1.23028  -1.22878  -1.22798
 Alpha  occ. eigenvalues --   -1.22789  -1.22506  -1.22489  -1.22393  -1.22327
 Alpha  occ. eigenvalues --   -1.22298  -1.22076  -1.22045  -1.21977  -1.21884
 Alpha  occ. eigenvalues --   -1.21859  -1.08983  -1.08597  -1.08534  -1.08419
 Alpha  occ. eigenvalues --   -1.08325  -1.08222  -1.08077  -1.08024  -1.07935
 Alpha  occ. eigenvalues --   -1.07796  -1.07615  -1.07497  -1.07395  -1.07294
 Alpha  occ. eigenvalues --   -1.07265  -1.07245  -1.07176  -1.06958  -1.06928
 Alpha  occ. eigenvalues --   -1.06847  -1.03147  -1.02938  -1.02886  -1.02791
 Alpha  occ. eigenvalues --   -1.02716  -1.02521  -1.02514  -1.02266  -1.02219
 Alpha  occ. eigenvalues --   -1.02017  -0.68212  -0.62858  -0.60934  -0.56638
 Alpha  occ. eigenvalues --   -0.51265  -0.47892  -0.44742  -0.42184  -0.40286
 Alpha  occ. eigenvalues --   -0.29843  -0.28057  -0.27198  -0.26307  -0.24742
 Alpha  occ. eigenvalues --   -0.24395  -0.23800  -0.23433  -0.22573  -0.20659
 Alpha  occ. eigenvalues --   -0.20147
 Alpha virt. eigenvalues --   -0.07722  -0.06819  -0.06605  -0.06146  -0.05563
 Alpha virt. eigenvalues --   -0.04986  -0.04681  -0.04543  -0.03982  -0.03473
 Alpha virt. eigenvalues --   -0.02893  -0.01816  -0.00906   0.04641   0.05338

 Mulliken charges:
               1
     1  Sn   0.073276
     2  Bi   0.046082
     3  Bi   0.049858
     4  Bi   0.139281
     5  Ge  -0.059939
     6  Ge  -0.081074
     7  Bi   0.012411
     8  Sn  -0.044294
     9  Ge  -0.135601
 Sum of Mulliken charges =   0.00000

 Dipole moment (field-independent basis, Debye):
    X=              0.4832    Y=             -0.9357    Z=             -0.4817  Tot=              1.1580
 Quadrupole moment (field-independent basis, Debye-Ang):
   XX=           -212.0898   YY=           -217.0216   ZZ=           -224.4340
   XY=             -0.6788   XZ=             -0.1627   YZ=             -1.0445

  Exact polarizability: 385.120  -5.233 387.721   2.586 -12.104 360.129
 Approx polarizability:1184.839 -35.9471205.763  14.386 -48.4901146.139

                      1                      2                      3
                      A                      A                      A
 Frequencies --     42.9219                55.4645                75.5966
 Red. masses --    158.8487               133.9832               150.7635
 Frc consts  --      0.1724                 0.2428                 0.5076
 IR Inten    --      0.0275                 0.0342                 0.0602

                      4                      5                      6
                      A                      A                      A
 Frequencies --     82.5705                88.0229                94.6289
 Red. masses --    142.5077               158.1737               113.3675
 Frc consts  --      0.5725                 0.7221                 0.5981
 IR Inten    --      0.0374                 0.1573                 0.0398

                      7                      8                      9
                      A                      A                      A
 Frequencies --     97.6537                98.8782               111.2291
 Red. masses --    120.6812               133.5055               112.8568
 Frc consts  --      0.6781                 0.7690                 0.8226
 IR Inten    --      0.2632                 0.0224                 0.1023

                     10                     11                     12
                      A                      A                      A
 Frequencies --    115.4370               120.8010               127.1905
 Red. masses --    129.2293               163.8833               103.1356
 Frc consts  --      1.0146                 1.4090                 0.9830
 IR Inten    --      0.1162                 0.0367                 0.3756

                     13                     14                     15
                      A                      A                      A
 Frequencies --    139.2199               140.1409               148.0452
 Red. masses --    107.3203               104.0841                87.2654
 Frc consts  --      1.2256                 1.2044                 1.1269
 IR Inten    --      0.4209                 0.3472                 0.1069

                     16                     17                     18
                      A                      A                      A
 Frequencies --    152.8142               155.1076               161.5638
 Red. masses --     91.5649               101.6000                86.7099
 Frc consts  --      1.2598                 1.4402                 1.3335
 IR Inten    --      0.0136                 0.0163                 0.0950

                     19                     20                     21
                      A                      A                      A
 Frequencies --    175.2771               178.9710               182.7892
 Red. masses --     88.8506                86.5570                85.9061
 Frc consts  --      1.6083                 1.6335                 1.6911
 IR Inten    --      0.6296                 0.3684                 1.0181

 - Thermochemistry -
 -------------------
 Temperature   298.150 Kelvin.  Pressure   1.00000 Atm.
 Atom     1 has atomic number 50 and mass 117.90180

 Molecular mass:  1293.48874 amu.
 Principal axes and moments of inertia in atomic units:
                           1         2         3
     Eigenvalues --  ******************************
           X            0.99958  -0.02875   0.00336
           Y            0.02885   0.99893  -0.03604
           Z           -0.00232   0.03612   0.99934
 This molecule is an asymmetric top.
 Rotational symmetry number  1.
 Warning -- assumption of classical behavior for rotation
           may cause significant error
 Rotational temperatures (Kelvin)      0.00508     0.00451     0.00396
 Rotational constants (GHZ):           0.10588     0.09401     0.08261
 Zero-point vibrational energy      15218.4 (Joules/Mol)
                                    3.63729 (Kcal/Mol)
 Warning -- explicit consideration of  21 degrees of freedom as
           vibrations may cause significant error
 Vibrational temperatures:     61.75    79.80   108.77   118.80   126.65
          (Kelvin)            136.15   140.50   142.26   160.03   166.09
                              173.81   183.00   200.31   201.63   213.00
                              219.87   223.16   232.45   252.18   257.50
                              262.99

 Zero-point correction=                           0.005796 (Hartree/Particle)
 Thermal correction to Energy=                    0.023279
 Thermal correction to Enthalpy=                  0.024223
 Thermal correction to Gibbs Free Energy=        -0.047983
 Sum of electronic and zero-point Energies=          -7517.811187
 Sum of electronic and thermal Energies=             -7517.793704
 Sum of electronic and thermal Enthalpies=           -7517.792760
 Sum of electronic and thermal Free Energies=        -7517.864967

                     E (Thermal)             CV                S
                      KCal/Mol        Cal/Mol-Kelvin    Cal/Mol-Kelvin
 Total                   14.608             46.412            151.972
 Electronic               0.000              0.000              0.000
 Translational            0.889              2.981             47.349
 Rotational               0.889              2.981             37.211
 Vibrational             12.831             40.450             67.411
 Vibration     1          0.595              1.980              5.119
 Vibration     2          0.596              1.975              4.612
 Vibration     3          0.599              1.965              4.002
 Vibration     4          0.600              1.961              3.829
 Vibration     5          0.601              1.958              3.704
 Vibration     6          0.603              1.953              3.562
 Vibration     7          0.603              1.951              3.501
 Vibration     8          0.604              1.950              3.476
 Vibration     9          0.607              1.940              3.247
 Vibration    10          0.608              1.937              3.175
 Vibration    11          0.609              1.932              3.088
 Vibration    12          0.611              1.926              2.988
 Vibration    13          0.615              1.914              2.815
 Vibration    14          0.615              1.913              2.802
 Vibration    15          0.617              1.905              2.697
 Vibration    16          0.619              1.900              2.637
 Vibration    17          0.620              1.897              2.609
 Vibration    18          0.622              1.890              2.531
 Vibration    19          0.627              1.873              2.378
 Vibration    20          0.629              1.868              2.339
 Vibration    21          0.630              1.863              2.300

 Normal termination of Gaussian 09 at Tue Mar  6 17:55:06 2018.
