 Gaussian 09, Revision D.01,
 Gaussian 09:  ES64L-G09RevD.01 24-Apr-2013

 ----------------------------------------------------------------------
 #p PBE1PBE/Def2TZVP scf=(maxcycle=768) opt=(cartesian,maxcycle=512) fr
 eq
 ----------------------------------------------------------------------

 ---------------------
 01Final_coords.xyz_41
 ---------------------
 Symbolic Z-matrix:
 Charge =  0 Multiplicity = 1

 SCF Done:  E(RPBE1PBE) =  -7517.81010264     A.U. after   17 cycles
 SCF Done:  E(RPBE1PBE) =  -7517.81578114     A.U. after   13 cycles
 SCF Done:  E(RPBE1PBE) =  -7517.81705892     A.U. after   12 cycles
 SCF Done:  E(RPBE1PBE) =  -7517.81716544     A.U. after   10 cycles
 SCF Done:  E(RPBE1PBE) =  -7517.81722929     A.U. after   10 cycles
 SCF Done:  E(RPBE1PBE) =  -7517.81724701     A.U. after   10 cycles
 SCF Done:  E(RPBE1PBE) =  -7517.81725182     A.U. after    9 cycles
 Optimization completed.
    -- Stationary point found.
 Normal termination of Gaussian 09 at Tue Mar  6 16:49:55 2018.

 ----------------------------------------------------------------------
 #P Geom=AllCheck Guess=TCheck SCRF=Check GenChk RPBE1PBE/def2TZVP Freq
 ----------------------------------------------------------------------

 Structure from the checkpoint file:  "Isomer_41.chk"
 ---------------------
 01Final_coords.xyz_41
 ---------------------
 Charge =  0 Multiplicity = 1

                         Standard orientation:
 ---------------------------------------------------------------------
 Center     Atomic      Atomic             Coordinates (Angstroms)
 Number     Number       Type             X           Y           Z
 ---------------------------------------------------------------------
      1         32           0       -1.321029    0.116039    2.215796
      2         32           0        0.000851    2.077600   -1.737276
      3         83           0       -1.485263   -1.914747    0.190313
      4         50           0       -0.000196   -0.690362   -2.239981
      5         32           0        1.321580    0.115217    2.215777
      6         83           0        2.191951    0.948797   -0.395994
      7         83           0        1.483379   -1.915987    0.190709
      8         50           0        0.001064    2.418326    1.197208
      9         83           0       -2.191131    0.950834   -0.395617
 ---------------------------------------------------------------------

 SCF Done:  E(RPBE1PBE) =  -7517.81725182     A.U. after    1 cycles

 The electronic state is 1-A.
 Alpha  occ. eigenvalues -- -399.09230-399.08320-399.08319 -49.90898 -49.89973
 Alpha  occ. eigenvalues --  -49.89972 -44.38969 -44.38943 -44.38917 -44.38058
 Alpha  occ. eigenvalues --  -44.38058 -44.38035 -44.38034 -44.37969 -44.37968
 Alpha  occ. eigenvalues --   -6.27438  -6.26511  -6.26510  -6.02357  -6.02357
 Alpha  occ. eigenvalues --   -6.02079  -6.02078  -5.14123  -5.13343  -4.42890
 Alpha  occ. eigenvalues --   -4.42791  -4.42709  -4.42003  -4.42001  -4.41918
 Alpha  occ. eigenvalues --   -4.41917  -4.41698  -4.41690  -3.74699  -3.74699
 Alpha  occ. eigenvalues --   -3.74473  -3.74473  -3.74384  -3.74370  -3.74339
 Alpha  occ. eigenvalues --   -3.74339  -3.74264  -3.74253  -3.74023  -3.74019
 Alpha  occ. eigenvalues --   -3.47371  -3.47258  -3.47091  -3.46596  -3.46463
 Alpha  occ. eigenvalues --   -3.46340  -1.22360  -1.22344  -1.22285  -1.22202
 Alpha  occ. eigenvalues --   -1.22161  -1.21531  -1.21518  -1.21487  -1.21482
 Alpha  occ. eigenvalues --   -1.21479  -1.21294  -1.21278  -1.21180  -1.21136
 Alpha  occ. eigenvalues --   -1.21005  -1.09008  -1.08791  -1.08598  -1.08416
 Alpha  occ. eigenvalues --   -1.08415  -1.08276  -1.08253  -1.08087  -1.08069
 Alpha  occ. eigenvalues --   -1.08052  -1.08000  -1.07951  -1.07911  -1.07769
 Alpha  occ. eigenvalues --   -1.07721  -1.07621  -1.07563  -1.07543  -1.07437
 Alpha  occ. eigenvalues --   -1.07296  -1.03559  -1.03552  -1.03405  -1.03354
 Alpha  occ. eigenvalues --   -1.03305  -1.02807  -1.02798  -1.02735  -1.02628
 Alpha  occ. eigenvalues --   -1.02541  -0.68229  -0.63354  -0.61157  -0.54794
 Alpha  occ. eigenvalues --   -0.53640  -0.48121  -0.43445  -0.42130  -0.40359
 Alpha  occ. eigenvalues --   -0.29758  -0.28526  -0.27694  -0.25917  -0.25369
 Alpha  occ. eigenvalues --   -0.24348  -0.23599  -0.23061  -0.22366  -0.21260
 Alpha  occ. eigenvalues --   -0.19681
 Alpha virt. eigenvalues --   -0.07573  -0.07513  -0.07023  -0.06604  -0.05531
 Alpha virt. eigenvalues --   -0.05237  -0.04922  -0.04510  -0.04304  -0.03023
 Alpha virt. eigenvalues --   -0.02522  -0.01800   0.00137   0.04719   0.05690

 Mulliken charges:
               1
     1  Ge  -0.123544
     2  Ge  -0.214372
     3  Bi   0.029894
     4  Sn   0.057507
     5  Ge  -0.123699
     6  Bi   0.128346
     7  Bi   0.030080
     8  Sn   0.087443
     9  Bi   0.128346
 Sum of Mulliken charges =   0.00000

 Dipole moment (field-independent basis, Debye):
    X=             -0.0008    Y=             -1.1239    Z=             -1.3743  Tot=              1.7753
 Quadrupole moment (field-independent basis, Debye-Ang):
   XX=           -214.1521   YY=           -214.4919   ZZ=           -226.2358
   XY=              0.0003   XZ=              0.0003   YZ=             -0.4866

  Exact polarizability: 368.735   0.011 386.375   0.005   7.471 374.737
 Approx polarizability:1120.173   0.0551204.630   0.014 -17.9561225.342

                      1                      2                      3
                      A                      A                      A
 Frequencies --     24.6252                66.4971                72.8569
 Red. masses --    148.3605               128.6586               144.3287
 Frc consts  --      0.0530                 0.3352                 0.4514
 IR Inten    --      0.0224                 0.1354                 0.0358

                      4                      5                      6
                      A                      A                      A
 Frequencies --     81.1679                86.3685                88.3267
 Red. masses --    141.5584               165.4855               118.7179
 Frc consts  --      0.5495                 0.7273                 0.5457
 IR Inten    --      0.1577                 0.0033                 0.1459

                      7                      8                      9
                      A                      A                      A
 Frequencies --     97.1413               108.2936               110.1218
 Red. masses --    144.8956               150.1423               118.9890
 Frc consts  --      0.8056                 1.0374                 0.8502
 IR Inten    --      0.1180                 0.1741                 0.0397

                     10                     11                     12
                      A                      A                      A
 Frequencies --    115.8052               118.2442               120.9758
 Red. masses --    130.3498               130.2566               117.2257
 Frc consts  --      1.0300                 1.0730                 1.0108
 IR Inten    --      0.0779                 0.0002                 0.3011

                     13                     14                     15
                      A                      A                      A
 Frequencies --    136.5052               144.0969               148.6833
 Red. masses --    157.0222                92.7811                94.6200
 Frc consts  --      1.7239                 1.1351                 1.2324
 IR Inten    --      0.0217                 1.2847                 0.3942

                     16                     17                     18
                      A                      A                      A
 Frequencies --    151.2472               163.7069               168.8846
 Red. masses --     90.7291                89.6111                86.2606
 Frc consts  --      1.2228                 1.4150                 1.4496
 IR Inten    --      1.0777                 0.2386                 0.1339

                     19                     20                     21
                      A                      A                      A
 Frequencies --    173.8872               180.4245               188.0168
 Red. masses --     81.1895                83.7356                78.3088
 Frc consts  --      1.4464                 1.6060                 1.6310
 IR Inten    --      0.0722                 0.4567                 1.4252

 - Thermochemistry -
 -------------------
 Temperature   298.150 Kelvin.  Pressure   1.00000 Atm.
 Atom     1 has atomic number 32 and mass  73.92118

 Molecular mass:  1293.48874 amu.
 Principal axes and moments of inertia in atomic units:
                           1         2         3
     Eigenvalues --  ******************************
           X            1.00000   0.00013   0.00001
           Y           -0.00013   0.99992   0.01273
           Z           -0.00001  -0.01273   0.99992
 This molecule is an asymmetric top.
 Rotational symmetry number  1.
 Warning -- assumption of classical behavior for rotation
           may cause significant error
 Rotational temperatures (Kelvin)      0.00509     0.00487     0.00394
 Rotational constants (GHZ):           0.10602     0.10156     0.08200
 Zero-point vibrational energy      15227.7 (Joules/Mol)
                                    3.63951 (Kcal/Mol)
 Warning -- explicit consideration of  21 degrees of freedom as
           vibrations may cause significant error
 Vibrational temperatures:     35.43    95.67   104.82   116.78   124.26
          (Kelvin)            127.08   139.76   155.81   158.44   166.62
                              170.13   174.06   196.40   207.32   213.92
                              217.61   235.54   242.99   250.18   259.59
                              270.51

 Zero-point correction=                           0.005800 (Hartree/Particle)
 Thermal correction to Energy=                    0.023288
 Thermal correction to Enthalpy=                  0.024232
 Thermal correction to Gibbs Free Energy=        -0.048304
 Sum of electronic and zero-point Energies=          -7517.811452
 Sum of electronic and thermal Energies=             -7517.793964
 Sum of electronic and thermal Enthalpies=           -7517.793020
 Sum of electronic and thermal Free Energies=        -7517.865556

                     E (Thermal)             CV                S
                      KCal/Mol        Cal/Mol-Kelvin    Cal/Mol-Kelvin
 Total                   14.613             46.395            152.665
 Electronic               0.000              0.000              0.000
 Translational            0.889              2.981             47.349
 Rotational               0.889              2.981             37.141
 Vibrational             12.836             40.433             68.175
 Vibration     1          0.593              1.985              6.221
 Vibration     2          0.598              1.970              4.254
 Vibration     3          0.599              1.967              4.075
 Vibration     4          0.600              1.962              3.862
 Vibration     5          0.601              1.959              3.741
 Vibration     6          0.601              1.957              3.697
 Vibration     7          0.603              1.951              3.511
 Vibration     8          0.606              1.943              3.299
 Vibration     9          0.606              1.941              3.267
 Vibration    10          0.608              1.936              3.169
 Vibration    11          0.608              1.934              3.129
 Vibration    12          0.609              1.932              3.085
 Vibration    13          0.614              1.917              2.852
 Vibration    14          0.616              1.909              2.749
 Vibration    15          0.618              1.904              2.689
 Vibration    16          0.619              1.901              2.656
 Vibration    17          0.623              1.887              2.507
 Vibration    18          0.625              1.881              2.448
 Vibration    19          0.627              1.875              2.393
 Vibration    20          0.629              1.866              2.324
 Vibration    21          0.633              1.856              2.247

 Normal termination of Gaussian 09 at Tue Mar  6 18:03:11 2018.
