 Gaussian 09, Revision D.01,
 Gaussian 09:  ES64L-G09RevD.01 24-Apr-2013

 ----------------------------------------------------------------------
 #p PBE1PBE/Def2TZVP scf=(maxcycle=768) opt=(cartesian,maxcycle=512) fr
 eq
 ----------------------------------------------------------------------

 ---------------------
 01Final_coords.xyz_15
 ---------------------
 Symbolic Z-matrix:
 Charge =  0 Multiplicity = 1

 SCF Done:  E(RPBE1PBE) =  -7517.81644296     A.U. after   16 cycles
 SCF Done:  E(RPBE1PBE) =  -7517.82223299     A.U. after   12 cycles
 SCF Done:  E(RPBE1PBE) =  -7517.82362747     A.U. after   12 cycles
 SCF Done:  E(RPBE1PBE) =  -7517.82376028     A.U. after   11 cycles
 SCF Done:  E(RPBE1PBE) =  -7517.82382420     A.U. after   10 cycles
 SCF Done:  E(RPBE1PBE) =  -7517.82385384     A.U. after   10 cycles
 SCF Done:  E(RPBE1PBE) =  -7517.82386343     A.U. after   10 cycles
 SCF Done:  E(RPBE1PBE) =  -7517.82386568     A.U. after    9 cycles
 Optimization completed.
    -- Stationary point found.
 Normal termination of Gaussian 09 at Tue Mar  6 13:33:00 2018.

 ----------------------------------------------------------------------
 #P Geom=AllCheck Guess=TCheck SCRF=Check GenChk RPBE1PBE/def2TZVP Freq
 ----------------------------------------------------------------------

 Structure from the checkpoint file:  "Isomer_15.chk"
 ---------------------
 01Final_coords.xyz_15
 ---------------------
 Charge =  0 Multiplicity = 1

                         Standard orientation:
 ---------------------------------------------------------------------
 Center     Atomic      Atomic             Coordinates (Angstroms)
 Number     Number       Type             X           Y           Z
 ---------------------------------------------------------------------
      1         50           0       -1.458113   -1.430020    1.582990
      2         32           0        1.246746   -1.616723    2.023712
      3         32           0        0.545093    0.892716    2.140550
      4         50           0        0.550574   -2.480820   -0.645358
      5         83           0        2.481233   -0.160883   -0.014781
      6         32           0        0.744314   -0.028384   -2.316103
      7         83           0       -1.816757   -0.826979   -1.391999
      8         83           0        0.752093    2.221470   -0.541055
      9         83           0       -1.847651    1.412398    0.670453
 ---------------------------------------------------------------------

 SCF Done:  E(RPBE1PBE) =  -7517.82386568     A.U. after    1 cycles

 The electronic state is 1-A.
 Alpha  occ. eigenvalues -- -399.10067-399.09019-399.08722 -49.91664 -49.90651
 Alpha  occ. eigenvalues --  -49.90412 -44.39762 -44.39725 -44.39662 -44.38723
 Alpha  occ. eigenvalues --  -44.38706 -44.38672 -44.38486 -44.38465 -44.38416
 Alpha  occ. eigenvalues --   -6.28191  -6.27178  -6.26966  -6.02577  -6.02160
 Alpha  occ. eigenvalues --   -6.01988  -6.01234  -5.13472  -5.13400  -4.43687
 Alpha  occ. eigenvalues --   -4.43577  -4.43372  -4.42616  -4.42553  -4.42438
 Alpha  occ. eigenvalues --   -4.42431  -4.42354  -4.42198  -3.74879  -3.74719
 Alpha  occ. eigenvalues --   -3.74580  -3.74441  -3.74286  -3.74259  -3.74212
 Alpha  occ. eigenvalues --   -3.74203  -3.73891  -3.73556  -3.73343  -3.73217
 Alpha  occ. eigenvalues --   -3.46710  -3.46654  -3.46638  -3.46532  -3.46419
 Alpha  occ. eigenvalues --   -3.46390  -1.23169  -1.23141  -1.22975  -1.22935
 Alpha  occ. eigenvalues --   -1.22872  -1.22100  -1.22081  -1.21992  -1.21934
 Alpha  occ. eigenvalues --   -1.21918  -1.21892  -1.21890  -1.21798  -1.21692
 Alpha  occ. eigenvalues --   -1.21667  -1.09042  -1.08653  -1.08599  -1.08465
 Alpha  occ. eigenvalues --   -1.08322  -1.08251  -1.08180  -1.08152  -1.08091
 Alpha  occ. eigenvalues --   -1.07928  -1.07736  -1.07617  -1.07536  -1.07419
 Alpha  occ. eigenvalues --   -1.07357  -1.07212  -1.07104  -1.06919  -1.06883
 Alpha  occ. eigenvalues --   -1.06795  -1.03012  -1.02978  -1.02896  -1.02857
 Alpha  occ. eigenvalues --   -1.02837  -1.02789  -1.02709  -1.02618  -1.02578
 Alpha  occ. eigenvalues --   -1.02454  -0.68230  -0.62948  -0.60295  -0.57405
 Alpha  occ. eigenvalues --   -0.52198  -0.47151  -0.44729  -0.41919  -0.40702
 Alpha  occ. eigenvalues --   -0.29835  -0.28237  -0.26958  -0.26516  -0.24802
 Alpha  occ. eigenvalues --   -0.24734  -0.23526  -0.23148  -0.22634  -0.21026
 Alpha  occ. eigenvalues --   -0.20497
 Alpha virt. eigenvalues --   -0.07765  -0.07073  -0.06675  -0.06299  -0.05591
 Alpha virt. eigenvalues --   -0.05188  -0.04644  -0.04273  -0.03932  -0.03169
 Alpha virt. eigenvalues --   -0.02597  -0.01822  -0.01404   0.04556   0.05820

 Mulliken charges:
               1
     1  Sn   0.074556
     2  Ge  -0.172091
     3  Ge  -0.056789
     4  Sn   0.067647
     5  Bi   0.142505
     6  Ge  -0.162695
     7  Bi   0.029647
     8  Bi   0.051630
     9  Bi   0.025590
 Sum of Mulliken charges =   0.00000

 Dipole moment (field-independent basis, Debye):
    X=             -0.4840    Y=              1.0543    Z=             -0.4976  Tot=              1.2623
 Quadrupole moment (field-independent basis, Debye-Ang):
   XX=           -213.3695   YY=           -216.4529   ZZ=           -224.8442
   XY=             -0.6736   XZ=             -0.6600   YZ=             -0.7419

  Exact polarizability: 378.165  -0.735 385.144  -3.856  -4.212 364.740
 Approx polarizability:1150.061 -20.1931183.969   7.803 -33.4661166.138

                      1                      2                      3
                      A                      A                      A
 Frequencies --     44.9198                63.4246                80.3029
 Red. masses --    165.9460               138.3636               128.8405
 Frc consts  --      0.1973                 0.3279                 0.4895
 IR Inten    --      0.0205                 0.0348                 0.1215

                      4                      5                      6
                      A                      A                      A
 Frequencies --     84.1857                86.6627                95.1907
 Red. masses --    144.7911               144.8277               113.3822
 Frc consts  --      0.6046                 0.6409                 0.6053
 IR Inten    --      0.1484                 0.0318                 0.0524

                      7                      8                      9
                      A                      A                      A
 Frequencies --     96.5897               105.6103               111.4414
 Red. masses --    150.6208               128.0562               114.7255
 Frc consts  --      0.8279                 0.8415                 0.8395
 IR Inten    --      0.0598                 0.0206                 0.2139

                     10                     11                     12
                      A                      A                      A
 Frequencies --    115.4224               117.4479               121.3370
 Red. masses --    135.7060               106.4099               150.3602
 Frc consts  --      1.0652                 0.8648                 1.3043
 IR Inten    --      0.0891                 0.1372                 0.0862

                     13                     14                     15
                      A                      A                      A
 Frequencies --    135.1186               139.7226               141.4465
 Red. masses --    107.3996               130.3496               107.4147
 Frc consts  --      1.1553                 1.4993                 1.2662
 IR Inten    --      0.7101                 0.2371                 0.3592

                     16                     17                     18
                      A                      A                      A
 Frequencies --    157.7077               163.6388               168.4358
 Red. masses --     92.2831                81.6178                86.6235
 Frc consts  --      1.3523                 1.2877                 1.4480
 IR Inten    --      0.2621                 0.7264                 0.2123

                     19                     20                     21
                      A                      A                      A
 Frequencies --    172.3655               175.3377               198.2683
 Red. masses --     84.8534                85.8284                77.4295
 Frc consts  --      1.4853                 1.5546                 1.7933
 IR Inten    --      0.1416                 0.7782                 0.5353

 - Thermochemistry -
 -------------------
 Temperature   298.150 Kelvin.  Pressure   1.00000 Atm.
 Atom     1 has atomic number 50 and mass 117.90180

 Molecular mass:  1293.48874 amu.
 Principal axes and moments of inertia in atomic units:
                           1         2         3
     Eigenvalues --  ******************************
           X            0.99992  -0.01085  -0.00600
           Y            0.01075   0.99981  -0.01654
           Z            0.00618   0.01648   0.99985
 This molecule is an asymmetric top.
 Rotational symmetry number  1.
 Warning -- assumption of classical behavior for rotation
           may cause significant error
 Rotational temperatures (Kelvin)      0.00510     0.00465     0.00398
 Rotational constants (GHZ):           0.10625     0.09692     0.08303
 Zero-point vibrational energy      15399.4 (Joules/Mol)
                                    3.68054 (Kcal/Mol)
 Warning -- explicit consideration of  21 degrees of freedom as
           vibrations may cause significant error
 Vibrational temperatures:     64.63    91.25   115.54   121.12   124.69
          (Kelvin)            136.96   138.97   151.95   160.34   166.07
                              168.98   174.58   194.41   201.03   203.51
                              226.91   235.44   242.34   248.00   252.27
                              285.26

 Zero-point correction=                           0.005865 (Hartree/Particle)
 Thermal correction to Energy=                    0.023293
 Thermal correction to Enthalpy=                  0.024238
 Thermal correction to Gibbs Free Energy=        -0.047652
 Sum of electronic and zero-point Energies=          -7517.818000
 Sum of electronic and thermal Energies=             -7517.800572
 Sum of electronic and thermal Enthalpies=           -7517.799628
 Sum of electronic and thermal Free Energies=        -7517.871518

                     E (Thermal)             CV                S
                      KCal/Mol        Cal/Mol-Kelvin    Cal/Mol-Kelvin
 Total                   14.617             46.383            151.305
 Electronic               0.000              0.000              0.000
 Translational            0.889              2.981             47.349
 Rotational               0.889              2.981             37.173
 Vibrational             12.839             40.422             66.783
 Vibration     1          0.595              1.979              5.029
 Vibration     2          0.597              1.972              4.348
 Vibration     3          0.600              1.963              3.883
 Vibration     4          0.601              1.960              3.791
 Vibration     5          0.601              1.958              3.734
 Vibration     6          0.603              1.953              3.550
 Vibration     7          0.603              1.952              3.522
 Vibration     8          0.605              1.945              3.348
 Vibration     9          0.607              1.940              3.244
 Vibration    10          0.608              1.937              3.176
 Vibration    11          0.608              1.935              3.142
 Vibration    12          0.609              1.931              3.079
 Vibration    13          0.613              1.918              2.872
 Vibration    14          0.615              1.914              2.808
 Vibration    15          0.615              1.912              2.784
 Vibration    16          0.621              1.894              2.577
 Vibration    17          0.623              1.887              2.507
 Vibration    18          0.625              1.881              2.453
 Vibration    19          0.626              1.876              2.410
 Vibration    20          0.627              1.873              2.377
 Vibration    21          0.637              1.842              2.149

 Normal termination of Gaussian 09 at Tue Mar  6 14:29:04 2018.
