 Gaussian 09, Revision D.01,
 Gaussian 09:  ES64L-G09RevD.01 24-Apr-2013

 ----------------------------------------------------------------------
 #p PBE1PBE/Def2TZVP scf=(maxcycle=768) opt=(cartesian,maxcycle=512) fr
 eq
 ----------------------------------------------------------------------

 ---------------------
 01Final_coords.xyz_16
 ---------------------
 Symbolic Z-matrix:
 Charge =  0 Multiplicity = 1

 SCF Done:  E(RPBE1PBE) =  -7517.81411642     A.U. after   16 cycles
 SCF Done:  E(RPBE1PBE) =  -7517.81926184     A.U. after   13 cycles
 SCF Done:  E(RPBE1PBE) =  -7517.82043399     A.U. after   12 cycles
 SCF Done:  E(RPBE1PBE) =  -7517.82055516     A.U. after   12 cycles
 SCF Done:  E(RPBE1PBE) =  -7517.82064724     A.U. after   12 cycles
 SCF Done:  E(RPBE1PBE) =  -7517.82065849     A.U. after   10 cycles
 SCF Done:  E(RPBE1PBE) =  -7517.82066051     A.U. after   11 cycles
 SCF Done:  E(RPBE1PBE) =  -7517.82066551     A.U. after   10 cycles
 SCF Done:  E(RPBE1PBE) =  -7517.82066652     A.U. after    9 cycles
 SCF Done:  E(RPBE1PBE) =  -7517.82066727     A.U. after   10 cycles
 SCF Done:  E(RPBE1PBE) =  -7517.82066812     A.U. after    8 cycles
 SCF Done:  E(RPBE1PBE) =  -7517.82066835     A.U. after    8 cycles
 SCF Done:  E(RPBE1PBE) =  -7517.82066841     A.U. after    9 cycles
 Optimization completed.
    -- Stationary point found.
 Normal termination of Gaussian 09 at Tue Mar  6 14:24:41 2018.

 ----------------------------------------------------------------------
 #P Geom=AllCheck Guess=TCheck SCRF=Check GenChk RPBE1PBE/def2TZVP Freq
 ----------------------------------------------------------------------

 Structure from the checkpoint file:  "Isomer_16.chk"
 ---------------------
 01Final_coords.xyz_16
 ---------------------
 Charge =  0 Multiplicity = 1

                         Standard orientation:
 ---------------------------------------------------------------------
 Center     Atomic      Atomic             Coordinates (Angstroms)
 Number     Number       Type             X           Y           Z
 ---------------------------------------------------------------------
      1         83           0        1.962870   -0.555293   -1.248099
      2         32           0       -0.200996   -2.268421   -1.565221
      3         32           0       -0.695904    0.254269   -2.269378
      4         50           0        0.584876   -2.100632    1.269372
      5         83           0       -2.137891   -1.230454    0.134647
      6         32           0       -0.884720    0.261554    2.242105
      7         83           0        1.818088    0.639440    1.534217
      8         83           0       -1.859937    1.732256   -0.021203
      9         50           0        0.915366    2.249619   -0.913450
 ---------------------------------------------------------------------

 SCF Done:  E(RPBE1PBE) =  -7517.82066841     A.U. after    1 cycles

 The electronic state is 1-A.
 Alpha  occ. eigenvalues -- -399.09893-399.09308-399.09189 -49.91489 -49.90978
 Alpha  occ. eigenvalues --  -49.90822 -44.39581 -44.39536 -44.39507 -44.39048
 Alpha  occ. eigenvalues --  -44.39022 -44.38999 -44.38892 -44.38873 -44.38849
 Alpha  occ. eigenvalues --   -6.28013  -6.27527  -6.27353  -6.02512  -6.02432
 Alpha  occ. eigenvalues --   -6.01138  -6.01123  -5.13794  -5.13353  -4.43493
 Alpha  occ. eigenvalues --   -4.43343  -4.43267  -4.42980  -4.42874  -4.42805
 Alpha  occ. eigenvalues --   -4.42788  -4.42716  -4.42627  -3.74782  -3.74701
 Alpha  occ. eigenvalues --   -3.74688  -3.74575  -3.74517  -3.74460  -3.73471
 Alpha  occ. eigenvalues --   -3.73459  -3.73311  -3.73276  -3.73064  -3.73033
 Alpha  occ. eigenvalues --   -3.47029  -3.46883  -3.46827  -3.46569  -3.46463
 Alpha  occ. eigenvalues --   -3.46383  -1.22939  -1.22919  -1.22858  -1.22799
 Alpha  occ. eigenvalues --   -1.22730  -1.22439  -1.22429  -1.22376  -1.22266
 Alpha  occ. eigenvalues --   -1.22246  -1.22245  -1.22225  -1.22185  -1.22094
 Alpha  occ. eigenvalues --   -1.22079  -1.08779  -1.08603  -1.08518  -1.08408
 Alpha  occ. eigenvalues --   -1.08381  -1.08351  -1.08283  -1.08182  -1.08161
 Alpha  occ. eigenvalues --   -1.08074  -1.07143  -1.07124  -1.07040  -1.07032
 Alpha  occ. eigenvalues --   -1.06920  -1.06905  -1.06754  -1.06707  -1.06693
 Alpha  occ. eigenvalues --   -1.06638  -1.03211  -1.03183  -1.03147  -1.03052
 Alpha  occ. eigenvalues --   -1.02991  -1.02780  -1.02745  -1.02684  -1.02586
 Alpha  occ. eigenvalues --   -1.02545  -0.67976  -0.63572  -0.59608  -0.58404
 Alpha  occ. eigenvalues --   -0.49660  -0.47976  -0.45048  -0.42707  -0.40362
 Alpha  occ. eigenvalues --   -0.29875  -0.27751  -0.27169  -0.26487  -0.25464
 Alpha  occ. eigenvalues --   -0.24248  -0.24137  -0.23067  -0.21918  -0.21384
 Alpha  occ. eigenvalues --   -0.20101
 Alpha virt. eigenvalues --   -0.07395  -0.07039  -0.06558  -0.06203  -0.05713
 Alpha virt. eigenvalues --   -0.05482  -0.04623  -0.04348  -0.04108  -0.03314
 Alpha virt. eigenvalues --   -0.02752  -0.02107  -0.00788   0.04698   0.05548

 Mulliken charges:
               1
     1  Bi   0.127259
     2  Ge  -0.173386
     3  Ge  -0.066690
     4  Sn   0.072022
     5  Bi   0.149046
     6  Ge  -0.140053
     7  Bi   0.005400
     8  Bi   0.017287
     9  Sn   0.009115
 Sum of Mulliken charges =   0.00000

 Dipole moment (field-independent basis, Debye):
    X=              0.3151    Y=              0.1507    Z=              0.1774  Tot=              0.3918
 Quadrupole moment (field-independent basis, Debye-Ang):
   XX=           -213.3878   YY=           -216.9603   ZZ=           -223.7715
   XY=              0.7047   XZ=             -0.9300   YZ=              0.4510

  Exact polarizability: 377.067   2.401 391.986   1.222  -8.521 362.596
 Approx polarizability:1140.785   8.8151243.616  11.353   8.7851155.399

                      1                      2                      3
                      A                      A                      A
 Frequencies --     37.2192                51.9029                75.0347
 Red. masses --    141.3478               117.0358               165.6642
 Frc consts  --      0.1154                 0.1858                 0.5495
 IR Inten    --      0.0946                 0.2677                 0.0273

                      4                      5                      6
                      A                      A                      A
 Frequencies --     84.1090                85.5575                90.7171
 Red. masses --    146.7609               155.2362               154.9235
 Frc consts  --      0.6117                 0.6695                 0.7512
 IR Inten    --      0.0445                 0.0470                 0.0340

                      7                      8                      9
                      A                      A                      A
 Frequencies --     93.4061               105.2735               106.7988
 Red. masses --    141.9006               110.3392               125.5592
 Frc consts  --      0.7294                 0.7205                 0.8438
 IR Inten    --      0.0699                 0.1154                 0.2114

                     10                     11                     12
                      A                      A                      A
 Frequencies --    115.6504               118.9059               127.4163
 Red. masses --    138.4691               102.0341               110.6657
 Frc consts  --      1.0912                 0.8500                 1.0586
 IR Inten    --      0.1863                 0.1175                 0.1910

                     13                     14                     15
                      A                      A                      A
 Frequencies --    135.1560               140.7542               148.5259
 Red. masses --    118.5251               117.4403               107.9384
 Frc consts  --      1.2756                 1.3709                 1.4029
 IR Inten    --      1.0729                 0.3029                 0.1352

                     16                     17                     18
                      A                      A                      A
 Frequencies --    151.8527               161.5138               165.6304
 Red. masses --     89.1441                86.8020                85.8115
 Frc consts  --      1.2111                 1.3341                 1.3870
 IR Inten    --      0.1141                 0.1937                 0.6973

                     19                     20                     21
                      A                      A                      A
 Frequencies --    174.8612               176.8920               193.4918
 Red. masses --     85.7166                87.6878                79.2891
 Frc consts  --      1.5442                 1.6166                 1.7490
 IR Inten    --      0.4839                 0.3346                 0.5529

 - Thermochemistry -
 -------------------
 Temperature   298.150 Kelvin.  Pressure   1.00000 Atm.
 Atom     1 has atomic number 83 and mass 208.98040

 Molecular mass:  1293.48874 amu.
 Principal axes and moments of inertia in atomic units:
                           1         2         3
     Eigenvalues --  ******************************
           X            0.99996   0.00855  -0.00111
           Y           -0.00857   0.99965  -0.02509
           Z            0.00090   0.02510   0.99968
 This molecule is an asymmetric top.
 Rotational symmetry number  1.
 Warning -- assumption of classical behavior for rotation
           may cause significant error
 Rotational temperatures (Kelvin)      0.00522     0.00445     0.00404
 Rotational constants (GHZ):           0.10884     0.09269     0.08408
 Zero-point vibrational energy      15196.6 (Joules/Mol)
                                    3.63207 (Kcal/Mol)
 Warning -- explicit consideration of  21 degrees of freedom as
           vibrations may cause significant error
 Vibrational temperatures:     53.55    74.68   107.96   121.01   123.10
          (Kelvin)            130.52   134.39   151.46   153.66   166.39
                              171.08   183.32   194.46   202.51   213.70
                              218.48   232.38   238.30   251.59   254.51
                              278.39

 Zero-point correction=                           0.005788 (Hartree/Particle)
 Thermal correction to Energy=                    0.023284
 Thermal correction to Enthalpy=                  0.024228
 Thermal correction to Gibbs Free Energy=        -0.048177
 Sum of electronic and zero-point Energies=          -7517.814880
 Sum of electronic and thermal Energies=             -7517.797384
 Sum of electronic and thermal Enthalpies=           -7517.796440
 Sum of electronic and thermal Free Energies=        -7517.868845

                     E (Thermal)             CV                S
                      KCal/Mol        Cal/Mol-Kelvin    Cal/Mol-Kelvin
 Total                   14.611             46.403            152.390
 Electronic               0.000              0.000              0.000
 Translational            0.889              2.981             47.349
 Rotational               0.889              2.981             37.181
 Vibrational             12.834             40.441             67.860
 Vibration     1          0.594              1.982              5.402
 Vibration     2          0.596              1.977              4.744
 Vibration     3          0.599              1.966              4.017
 Vibration     4          0.601              1.960              3.793
 Vibration     5          0.601              1.959              3.759
 Vibration     6          0.602              1.956              3.645
 Vibration     7          0.602              1.954              3.587
 Vibration     8          0.605              1.945              3.354
 Vibration     9          0.606              1.944              3.326
 Vibration    10          0.608              1.936              3.172
 Vibration    11          0.609              1.934              3.118
 Vibration    12          0.611              1.926              2.985
 Vibration    13          0.613              1.918              2.871
 Vibration    14          0.615              1.913              2.794
 Vibration    15          0.618              1.904              2.691
 Vibration    16          0.619              1.901              2.649
 Vibration    17          0.622              1.890              2.532
 Vibration    18          0.624              1.885              2.484
 Vibration    19          0.627              1.873              2.383
 Vibration    20          0.628              1.871              2.361
 Vibration    21          0.635              1.849              2.194

 Optimization completed.
    -- Stationary point found.
 Normal termination of Gaussian 09 at Tue Mar  6 15:21:05 2018.
