 Gaussian 09, Revision D.01,
 Gaussian 09:  ES64L-G09RevD.01 24-Apr-2013

 ----------------------------------------------------------------------
 #p PBE1PBE/Def2TZVP scf=(maxcycle=768) opt=(cartesian,maxcycle=512) fr
 eq
 ----------------------------------------------------------------------

 ---------------------
 01Final_coords.xyz_23
 ---------------------
 Symbolic Z-matrix:
 Charge =  0 Multiplicity = 1

 SCF Done:  E(RPBE1PBE) =  -7517.81133015     A.U. after   16 cycles
 SCF Done:  E(RPBE1PBE) =  -7517.81655053     A.U. after   13 cycles
 SCF Done:  E(RPBE1PBE) =  -7517.81775725     A.U. after   12 cycles
 SCF Done:  E(RPBE1PBE) =  -7517.81789120     A.U. after   12 cycles
 SCF Done:  E(RPBE1PBE) =  -7517.81798240     A.U. after   11 cycles
 SCF Done:  E(RPBE1PBE) =  -7517.81800141     A.U. after   11 cycles
 SCF Done:  E(RPBE1PBE) =  -7517.81800627     A.U. after    9 cycles
 SCF Done:  E(RPBE1PBE) =  -7517.81800873     A.U. after   11 cycles
 SCF Done:  E(RPBE1PBE) =  -7517.81801065     A.U. after    9 cycles
 SCF Done:  E(RPBE1PBE) =  -7517.81801173     A.U. after    8 cycles
 SCF Done:  E(RPBE1PBE) =  -7517.81801252     A.U. after    8 cycles
 SCF Done:  E(RPBE1PBE) =  -7517.81801305     A.U. after    9 cycles
 Optimization completed.
    -- Stationary point found.
 Normal termination of Gaussian 09 at Tue Mar  6 14:50:42 2018.

 ----------------------------------------------------------------------
 #P Geom=AllCheck Guess=TCheck SCRF=Check GenChk RPBE1PBE/def2TZVP Freq
 ----------------------------------------------------------------------

 Structure from the checkpoint file:  "Isomer_23.chk"
 ---------------------
 01Final_coords.xyz_23
 ---------------------
 Charge =  0 Multiplicity = 1

                         Standard orientation:
 ---------------------------------------------------------------------
 Center     Atomic      Atomic             Coordinates (Angstroms)
 Number     Number       Type             X           Y           Z
 ---------------------------------------------------------------------
      1         83           0        1.715651   -1.579256    0.937848
      2         83           0       -2.044580    1.018440    0.686135
      3         83           0        2.052124    0.712051   -0.973568
      4         83           0       -1.879165   -1.573987   -0.786095
      5         50           0        0.770064    1.085487    2.026297
      6         50           0        0.017715    2.788480   -0.459055
      7         32           0       -0.907890   -1.299877    1.906174
      8         32           0       -0.645667    0.599962   -2.208536
      9         32           0        0.727199   -1.662895   -1.794535
 ---------------------------------------------------------------------

 SCF Done:  E(RPBE1PBE) =  -7517.81801305     A.U. after    1 cycles

 The electronic state is 1-A.
 Alpha  occ. eigenvalues -- -399.09868-399.09191-399.09121 -49.91465 -49.90836
 Alpha  occ. eigenvalues --  -49.90763 -44.39557 -44.39510 -44.39486 -44.38906
 Alpha  occ. eigenvalues --  -44.38877 -44.38867 -44.38831 -44.38814 -44.38788
 Alpha  occ. eigenvalues --   -6.27992  -6.27380  -6.27298  -6.02427  -6.02291
 Alpha  occ. eigenvalues --   -6.01264  -6.01256  -5.13696  -5.13529  -4.43470
 Alpha  occ. eigenvalues --   -4.43314  -4.43258  -4.42827  -4.42734  -4.42717
 Alpha  occ. eigenvalues --   -4.42676  -4.42664  -4.42570  -3.74685  -3.74593
 Alpha  occ. eigenvalues --   -3.74553  -3.74457  -3.74444  -3.74298  -3.73616
 Alpha  occ. eigenvalues --   -3.73583  -3.73448  -3.73441  -3.73171  -3.73158
 Alpha  occ. eigenvalues --   -3.46931  -3.46762  -3.46760  -3.46747  -3.46653
 Alpha  occ. eigenvalues --   -3.46530  -1.22920  -1.22885  -1.22844  -1.22765
 Alpha  occ. eigenvalues --   -1.22705  -1.22275  -1.22250  -1.22247  -1.22219
 Alpha  occ. eigenvalues --   -1.22194  -1.22134  -1.22106  -1.22093  -1.22039
 Alpha  occ. eigenvalues --   -1.22030  -1.08669  -1.08594  -1.08422  -1.08351
 Alpha  occ. eigenvalues --   -1.08299  -1.08179  -1.08170  -1.08081  -1.08050
 Alpha  occ. eigenvalues --   -1.07934  -1.07288  -1.07244  -1.07165  -1.07137
 Alpha  occ. eigenvalues --   -1.07034  -1.06992  -1.06860  -1.06833  -1.06807
 Alpha  occ. eigenvalues --   -1.06739  -1.03238  -1.03111  -1.03084  -1.03043
 Alpha  occ. eigenvalues --   -1.02966  -1.02905  -1.02890  -1.02842  -1.02673
 Alpha  occ. eigenvalues --   -1.02606  -0.68010  -0.63602  -0.59104  -0.58801
 Alpha  occ. eigenvalues --   -0.49674  -0.47451  -0.45463  -0.42929  -0.40086
 Alpha  occ. eigenvalues --   -0.29985  -0.27997  -0.26714  -0.26326  -0.25353
 Alpha  occ. eigenvalues --   -0.24566  -0.24149  -0.23119  -0.21837  -0.21162
 Alpha  occ. eigenvalues --   -0.20118
 Alpha virt. eigenvalues --   -0.07277  -0.06905  -0.06699  -0.06018  -0.05814
 Alpha virt. eigenvalues --   -0.05548  -0.04935  -0.04520  -0.04111  -0.03642
 Alpha virt. eigenvalues --   -0.02674  -0.01948  -0.00126   0.04703   0.05364

 Mulliken charges:
               1
     1  Bi   0.048302
     2  Bi   0.119909
     3  Bi   0.121554
     4  Bi   0.054415
     5  Sn   0.043389
     6  Sn  -0.051761
     7  Ge  -0.156073
     8  Ge  -0.057910
     9  Ge  -0.121825
 Sum of Mulliken charges =   0.00000

 Dipole moment (field-independent basis, Debye):
    X=              0.1900    Y=              0.6149    Z=              0.2992  Tot=              0.7097
 Quadrupole moment (field-independent basis, Debye-Ang):
   XX=           -214.0437   YY=           -215.4575   ZZ=           -224.2196
   XY=              0.3715   XZ=             -0.5791   YZ=              0.2423

  Exact polarizability: 372.633   1.036 393.604   2.937   1.119 366.004
 Approx polarizability:1132.513  -2.5031264.962   0.346  -2.4451165.709

                      1                      2                      3
                      A                      A                      A
 Frequencies --     36.6491                47.8713                77.6310
 Red. masses --    129.0420               142.0979               157.1771
 Frc consts  --      0.1021                 0.1919                 0.5581
 IR Inten    --      0.0730                 0.0656                 0.0127

                      4                      5                      6
                      A                      A                      A
 Frequencies --     82.1928                83.5789                89.9795
 Red. masses --    141.0946               157.1479               176.0788
 Frc consts  --      0.5616                 0.6468                 0.8399
 IR Inten    --      0.0508                 0.1149                 0.0410

                      7                      8                      9
                      A                      A                      A
 Frequencies --     96.8326               105.7312               111.1833
 Red. masses --    116.4952               112.1761               124.3947
 Frc consts  --      0.6436                 0.7389                 0.9060
 IR Inten    --      0.0215                 0.2859                 0.1034

                     10                     11                     12
                      A                      A                      A
 Frequencies --    113.2029               119.2209               130.3574
 Red. masses --    108.0542               148.5909               100.8008
 Frc consts  --      0.8158                 1.2444                 1.0092
 IR Inten    --      0.5088                 0.0965                 0.2974

                     13                     14                     15
                      A                      A                      A
 Frequencies --    133.9734               141.1473               144.9030
 Red. masses --    122.7397               126.2443                95.5765
 Frc consts  --      1.2980                 1.4819                 1.1824
 IR Inten    --      0.2791                 0.2557                 0.2017

                     16                     17                     18
                      A                      A                      A
 Frequencies --    151.6345               164.2698               168.8316
 Red. masses --     82.5455                91.2501                89.8744
 Frc consts  --      1.1183                 1.4508                 1.5094
 IR Inten    --      0.2651                 0.3762                 0.9035

                     19                     20                     21
                      A                      A                      A
 Frequencies --    173.5740               177.0380               187.1693
 Red. masses --     86.7174                87.0166                80.2885
 Frc consts  --      1.5393                 1.6069                 1.6572
 IR Inten    --      0.0734                 0.2878                 0.7863

 - Thermochemistry -
 -------------------
 Temperature   298.150 Kelvin.  Pressure   1.00000 Atm.
 Atom     1 has atomic number 83 and mass 208.98040

 Molecular mass:  1293.48874 amu.
 Principal axes and moments of inertia in atomic units:
                           1         2         3
     Eigenvalues --  ******************************
           X            0.99997   0.00806   0.00129
           Y           -0.00807   0.99996   0.00240
           Z           -0.00127  -0.00241   1.00000
 This molecule is an asymmetric top.
 Rotational symmetry number  1.
 Warning -- assumption of classical behavior for rotation
           may cause significant error
 Rotational temperatures (Kelvin)      0.00510     0.00458     0.00399
 Rotational constants (GHZ):           0.10620     0.09548     0.08311
 Zero-point vibrational energy      15174.5 (Joules/Mol)
                                    3.62678 (Kcal/Mol)
 Warning -- explicit consideration of  21 degrees of freedom as
           vibrations may cause significant error
 Vibrational temperatures:     52.73    68.88   111.69   118.26   120.25
          (Kelvin)            129.46   139.32   152.12   159.97   162.87
                              171.53   187.55   192.76   203.08   208.48
                              218.17   236.35   242.91   249.73   254.72
                              269.29

 Zero-point correction=                           0.005780 (Hartree/Particle)
 Thermal correction to Energy=                    0.023282
 Thermal correction to Enthalpy=                  0.024227
 Thermal correction to Gibbs Free Energy=        -0.048245
 Sum of electronic and zero-point Energies=          -7517.812233
 Sum of electronic and thermal Energies=             -7517.794731
 Sum of electronic and thermal Enthalpies=           -7517.793787
 Sum of electronic and thermal Free Energies=        -7517.866258

                     E (Thermal)             CV                S
                      KCal/Mol        Cal/Mol-Kelvin    Cal/Mol-Kelvin
 Total                   14.610             46.406            152.529
 Electronic               0.000              0.000              0.000
 Translational            0.889              2.981             47.349
 Rotational               0.889              2.981             37.187
 Vibrational             12.832             40.445             67.993
 Vibration     1          0.594              1.982              5.432
 Vibration     2          0.595              1.978              4.903
 Vibration     3          0.599              1.964              3.950
 Vibration     4          0.600              1.961              3.838
 Vibration     5          0.600              1.960              3.805
 Vibration     6          0.602              1.956              3.661
 Vibration     7          0.603              1.951              3.517
 Vibration     8          0.605              1.945              3.346
 Vibration     9          0.607              1.940              3.248
 Vibration    10          0.607              1.939              3.213
 Vibration    11          0.609              1.933              3.113
 Vibration    12          0.612              1.923              2.941
 Vibration    13          0.613              1.919              2.888
 Vibration    14          0.615              1.912              2.788
 Vibration    15          0.616              1.908              2.738
 Vibration    16          0.619              1.901              2.652
 Vibration    17          0.623              1.886              2.500
 Vibration    18          0.625              1.881              2.448
 Vibration    19          0.627              1.875              2.396
 Vibration    20          0.628              1.871              2.359
 Vibration    21          0.632              1.857              2.256

 Normal termination of Gaussian 09 at Tue Mar  6 16:07:31 2018.
