 Gaussian 09, Revision D.01,
 Gaussian 09:  ES64L-G09RevD.01 24-Apr-2013

 ----------------------------------------------------------------------
 #p PBE1PBE/Def2TZVP scf=(maxcycle=768) opt=(cartesian,maxcycle=512) fr
 eq
 ----------------------------------------------------------------------

 ---------------------
 01Final_coords.xyz_18
 ---------------------
 Symbolic Z-matrix:
 Charge =  0 Multiplicity = 1

 SCF Done:  E(RPBE1PBE) =  -7517.81198563     A.U. after   16 cycles
 SCF Done:  E(RPBE1PBE) =  -7517.81709729     A.U. after   12 cycles
 SCF Done:  E(RPBE1PBE) =  -7517.81826928     A.U. after   11 cycles
 SCF Done:  E(RPBE1PBE) =  -7517.81839726     A.U. after   11 cycles
 SCF Done:  E(RPBE1PBE) =  -7517.81848941     A.U. after   11 cycles
 SCF Done:  E(RPBE1PBE) =  -7517.81850643     A.U. after   10 cycles
 SCF Done:  E(RPBE1PBE) =  -7517.81851178     A.U. after   10 cycles
 SCF Done:  E(RPBE1PBE) =  -7517.81851402     A.U. after    9 cycles
 SCF Done:  E(RPBE1PBE) =  -7517.81851587     A.U. after    9 cycles
 Optimization completed.
    -- Stationary point found.
 Normal termination of Gaussian 09 at Tue Mar  6 13:41:17 2018.

 ----------------------------------------------------------------------
 #P Geom=AllCheck Guess=TCheck SCRF=Check GenChk RPBE1PBE/def2TZVP Freq
 ----------------------------------------------------------------------

 Structure from the checkpoint file:  "Isomer_18.chk"
 ---------------------
 01Final_coords.xyz_18
 ---------------------
 Charge =  0 Multiplicity = 1

                         Standard orientation:
 ---------------------------------------------------------------------
 Center     Atomic      Atomic             Coordinates (Angstroms)
 Number     Number       Type             X           Y           Z
 ---------------------------------------------------------------------
      1         83           0       -2.092212    1.140460   -0.658451
      2         83           0        2.092062    1.141314    0.656607
      3         32           0       -0.000802    2.810979    0.000236
      4         83           0        1.860380   -1.250105   -1.135803
      5         50           0       -1.017603   -1.429225   -1.803621
      6         50           0        1.017676   -1.427884    1.804767
      7         32           0        0.458822    1.108319   -2.081952
      8         83           0       -1.860416   -1.249043    1.136615
      9         32           0       -0.457653    1.108747    2.082603
 ---------------------------------------------------------------------

 SCF Done:  E(RPBE1PBE) =  -7517.81851587     A.U. after    1 cycles

 The electronic state is 1-A.
 Alpha  occ. eigenvalues -- -399.09916-399.09913-399.09205 -49.91504 -49.91500
 Alpha  occ. eigenvalues --  -49.90880 -44.39590 -44.39586 -44.39551 -44.39548
 Alpha  occ. eigenvalues --  -44.39528 -44.39525 -44.38946 -44.38924 -44.38903
 Alpha  occ. eigenvalues --   -6.28024  -6.28021  -6.27435  -6.02565  -6.02562
 Alpha  occ. eigenvalues --   -6.01105  -6.01100  -5.13385  -5.13383  -4.43485
 Alpha  occ. eigenvalues --   -4.43482  -4.43357  -4.43353  -4.43288  -4.43284
 Alpha  occ. eigenvalues --   -4.42882  -4.42780  -4.42722  -3.74837  -3.74834
 Alpha  occ. eigenvalues --   -3.74720  -3.74717  -3.74587  -3.74585  -3.73429
 Alpha  occ. eigenvalues --   -3.73424  -3.73268  -3.73263  -3.73026  -3.73022
 Alpha  occ. eigenvalues --   -3.46592  -3.46591  -3.46509  -3.46508  -3.46409
 Alpha  occ. eigenvalues --   -3.46407  -1.22928  -1.22924  -1.22917  -1.22914
 Alpha  occ. eigenvalues --   -1.22858  -1.22854  -1.22804  -1.22774  -1.22747
 Alpha  occ. eigenvalues --   -1.22728  -1.22333  -1.22328  -1.22296  -1.22160
 Alpha  occ. eigenvalues --   -1.22139  -1.08790  -1.08777  -1.08556  -1.08554
 Alpha  occ. eigenvalues --   -1.08480  -1.08463  -1.08326  -1.08322  -1.08222
 Alpha  occ. eigenvalues --   -1.08200  -1.07092  -1.07087  -1.07021  -1.07009
 Alpha  occ. eigenvalues --   -1.06926  -1.06894  -1.06713  -1.06688  -1.06667
 Alpha  occ. eigenvalues --   -1.06628  -1.02814  -1.02807  -1.02789  -1.02775
 Alpha  occ. eigenvalues --   -1.02752  -1.02654  -1.02605  -1.02604  -1.02572
 Alpha  occ. eigenvalues --   -1.02564  -0.68028  -0.63674  -0.59358  -0.58748
 Alpha  occ. eigenvalues --   -0.49008  -0.48788  -0.44569  -0.42790  -0.40550
 Alpha  occ. eigenvalues --   -0.29902  -0.27483  -0.27194  -0.26724  -0.25749
 Alpha  occ. eigenvalues --   -0.24498  -0.23639  -0.23124  -0.21901  -0.21674
 Alpha  occ. eigenvalues --   -0.19765
 Alpha virt. eigenvalues --   -0.07510  -0.07052  -0.06291  -0.06125  -0.05896
 Alpha virt. eigenvalues --   -0.05240  -0.04908  -0.04314  -0.03796  -0.03446
 Alpha virt. eigenvalues --   -0.03438  -0.01661  -0.01111   0.04558   0.05612

 Mulliken charges:
               1
     1  Bi   0.146618
     2  Bi   0.146665
     3  Ge  -0.148892
     4  Bi  -0.022932
     5  Sn   0.024091
     6  Sn   0.024029
     7  Ge  -0.073224
     8  Bi  -0.023101
     9  Ge  -0.073254
 Sum of Mulliken charges =   0.00000

 Dipole moment (field-independent basis, Debye):
    X=              0.0017    Y=             -0.7719    Z=             -0.0014  Tot=              0.7719
 Quadrupole moment (field-independent basis, Debye-Ang):
   XX=           -212.2111   YY=           -218.3077   ZZ=           -223.7564
   XY=             -0.0016   XZ=              1.7243   YZ=              0.0018

  Exact polarizability: 383.755  -0.012 379.099   5.772   0.015 372.830
 Approx polarizability:1166.719  -0.1841228.791  -4.407   0.1521159.307

                      1                      2                      3
                      A                      A                      A
 Frequencies --     29.9431                38.2250                73.3384
 Red. masses --    150.1513                96.6332               180.9746
 Frc consts  --      0.0793                 0.0832                 0.5735
 IR Inten    --      0.1908                 0.4608                 0.0580

                      4                      5                      6
                      A                      A                      A
 Frequencies --     76.9130                87.8887                89.6459
 Red. masses --    144.3190               150.7371               174.1409
 Frc consts  --      0.5030                 0.6860                 0.8245
 IR Inten    --      0.0483                 0.0033                 0.0392

                      7                      8                      9
                      A                      A                      A
 Frequencies --     96.4834               104.6632               111.0789
 Red. masses --    141.2314               126.4033               110.4692
 Frc consts  --      0.7746                 0.8158                 0.8031
 IR Inten    --      0.0076                 0.1591                 0.2758

                     10                     11                     12
                      A                      A                      A
 Frequencies --    114.3879               122.9535               124.0072
 Red. masses --    118.2307               104.4235               105.7310
 Frc consts  --      0.9115                 0.9301                 0.9580
 IR Inten    --      0.0986                 0.0369                 0.7932

                     13                     14                     15
                      A                      A                      A
 Frequencies --    133.2536               143.4110               147.0772
 Red. masses --    116.1781               122.4975               108.3820
 Frc consts  --      1.2154                 1.4844                 1.3813
 IR Inten    --      0.3181                 0.0013                 0.8306

                     16                     17                     18
                      A                      A                      A
 Frequencies --    149.6014               157.7593               163.6940
 Red. masses --    101.3291                91.3048                89.1277
 Frc consts  --      1.3362                 1.3389                 1.4071
 IR Inten    --      0.0050                 0.1710                 0.2602

                     19                     20                     21
                      A                      A                      A
 Frequencies --    164.7046               186.4388               194.2785
 Red. masses --     81.1400                86.2106                80.1275
 Frc consts  --      1.2969                 1.7656                 1.7819
 IR Inten    --      0.0160                 0.4349                 0.8519

 - Thermochemistry -
 -------------------
 Temperature   298.150 Kelvin.  Pressure   1.00000 Atm.
 Atom     1 has atomic number 83 and mass 208.98040

 Molecular mass:  1293.48874 amu.
 Principal axes and moments of inertia in atomic units:
                           1         2         3
     Eigenvalues --  ******************************
           X            0.99993   0.00000   0.01170
           Y            0.00000   1.00000   0.00007
           Z           -0.01170  -0.00007   0.99993
 This molecule is an asymmetric top.
 Rotational symmetry number  1.
 Warning -- assumption of classical behavior for rotation
           may cause significant error
 Rotational temperatures (Kelvin)      0.00530     0.00427     0.00405
 Rotational constants (GHZ):           0.11053     0.08897     0.08430
 Zero-point vibrational energy      15011.6 (Joules/Mol)
                                    3.58786 (Kcal/Mol)
 Warning -- explicit consideration of  21 degrees of freedom as
           vibrations may cause significant error
 Vibrational temperatures:     43.08    55.00   105.52   110.66   126.45
          (Kelvin)            128.98   138.82   150.59   159.82   164.58
                              176.90   178.42   191.72   206.34   211.61
                              215.24   226.98   235.52   236.97   268.24
                              279.52

 Zero-point correction=                           0.005718 (Hartree/Particle)
 Thermal correction to Energy=                    0.023277
 Thermal correction to Enthalpy=                  0.024221
 Thermal correction to Gibbs Free Energy=        -0.048775
 Sum of electronic and zero-point Energies=          -7517.812798
 Sum of electronic and thermal Energies=             -7517.795239
 Sum of electronic and thermal Enthalpies=           -7517.794295
 Sum of electronic and thermal Free Energies=        -7517.867291

                     E (Thermal)             CV                S
                      KCal/Mol        Cal/Mol-Kelvin    Cal/Mol-Kelvin
 Total                   14.606             46.418            153.633
 Electronic               0.000              0.000              0.000
 Translational            0.889              2.981             47.349
 Rotational               0.889              2.981             37.203
 Vibrational             12.829             40.456             69.081
 Vibration     1          0.594              1.984              5.833
 Vibration     2          0.594              1.982              5.349
 Vibration     3          0.599              1.967              4.062
 Vibration     4          0.599              1.965              3.968
 Vibration     5          0.601              1.958              3.707
 Vibration     6          0.602              1.957              3.668
 Vibration     7          0.603              1.952              3.524
 Vibration     8          0.605              1.945              3.366
 Vibration     9          0.607              1.940              3.250
 Vibration    10          0.607              1.938              3.193
 Vibration    11          0.610              1.930              3.053
 Vibration    12          0.610              1.929              3.037
 Vibration    13          0.613              1.920              2.899
 Vibration    14          0.616              1.910              2.758
 Vibration    15          0.617              1.906              2.710
 Vibration    16          0.618              1.903              2.677
 Vibration    17          0.621              1.894              2.576
 Vibration    18          0.623              1.887              2.507
 Vibration    19          0.623              1.886              2.495
 Vibration    20          0.632              1.858              2.263
 Vibration    21          0.635              1.848              2.187

 Normal termination of Gaussian 09 at Tue Mar  6 14:38:15 2018.
