 Gaussian 09, Revision D.01,
 Gaussian 09:  ES64L-G09RevD.01 24-Apr-2013

 ----------------------------------------------------------------------
 #p PBE1PBE/Def2TZVP scf=(maxcycle=768) opt=(cartesian,maxcycle=512) fr
 eq
 ----------------------------------------------------------------------

 ---------------------
 01Final_coords.xyz_32
 ---------------------
 Symbolic Z-matrix:
 Charge =  0 Multiplicity = 1

 SCF Done:  E(RPBE1PBE) =  -7517.81093052     A.U. after   16 cycles
 SCF Done:  E(RPBE1PBE) =  -7517.81652374     A.U. after   13 cycles
 SCF Done:  E(RPBE1PBE) =  -7517.81788663     A.U. after   12 cycles
 SCF Done:  E(RPBE1PBE) =  -7517.81804480     A.U. after   12 cycles
 SCF Done:  E(RPBE1PBE) =  -7517.81814336     A.U. after   11 cycles
 SCF Done:  E(RPBE1PBE) =  -7517.81816609     A.U. after   10 cycles
 SCF Done:  E(RPBE1PBE) =  -7517.81817201     A.U. after   10 cycles
 SCF Done:  E(RPBE1PBE) =  -7517.81817434     A.U. after   10 cycles
 SCF Done:  E(RPBE1PBE) =  -7517.81817534     A.U. after    9 cycles
 Optimization completed.
    -- Stationary point found.
 Normal termination of Gaussian 09 at Thu Mar  8 08:00:31 2018.

 ----------------------------------------------------------------------
 #P Geom=AllCheck Guess=TCheck SCRF=Check GenChk RPBE1PBE/def2TZVP Freq
 ----------------------------------------------------------------------

 Structure from the checkpoint file:  "Isomer_32.chk"
 ---------------------
 01Final_coords.xyz_32
 ---------------------
 Charge =  0 Multiplicity = 1

                         Standard orientation:
 ---------------------------------------------------------------------
 Center     Atomic      Atomic             Coordinates (Angstroms)
 Number     Number       Type             X           Y           Z
 ---------------------------------------------------------------------
      1         83           0        2.332823    0.861613   -0.325806
      2         83           0       -1.665240   -1.581359   -0.577725
      3         32           0        0.193867    2.302949    1.073426
      4         83           0       -2.125630    1.374846   -0.226085
      5         32           0        1.456906    0.330553    2.324702
      6         83           0        1.099045   -1.896199    0.549593
      7         32           0        0.199950    2.031221   -1.675720
      8         50           0        0.656081   -0.737979   -2.312711
      9         50           0       -1.244602   -0.187222    2.173209
 ---------------------------------------------------------------------

 SCF Done:  E(RPBE1PBE) =  -7517.81817534     A.U. after    1 cycles

 The electronic state is 1-A.
 Alpha  occ. eigenvalues -- -399.09431-399.09137-399.08425 -49.91050 -49.90811
 Alpha  occ. eigenvalues --  -49.90086 -44.39134 -44.39093 -44.39075 -44.38887
 Alpha  occ. eigenvalues --  -44.38873 -44.38806 -44.38156 -44.38141 -44.38102
 Alpha  occ. eigenvalues --   -6.27594  -6.27360  -6.26626  -6.02695  -6.02514
 Alpha  occ. eigenvalues --   -6.01919  -6.01699  -5.13798  -5.12996  -4.43067
 Alpha  occ. eigenvalues --   -4.42928  -4.42865  -4.42823  -4.42782  -4.42556
 Alpha  occ. eigenvalues --   -4.42079  -4.42012  -4.41870  -3.74984  -3.74823
 Alpha  occ. eigenvalues --   -3.74814  -3.74707  -3.74657  -3.74524  -3.74203
 Alpha  occ. eigenvalues --   -3.74089  -3.74048  -3.73874  -3.73766  -3.73714
 Alpha  occ. eigenvalues --   -3.47079  -3.46935  -3.46744  -3.46250  -3.46199
 Alpha  occ. eigenvalues --   -3.45889  -1.22552  -1.22532  -1.22503  -1.22409
 Alpha  occ. eigenvalues --   -1.22376  -1.22305  -1.22288  -1.22116  -1.22060
 Alpha  occ. eigenvalues --   -1.21996  -1.21585  -1.21547  -1.21434  -1.21353
 Alpha  occ. eigenvalues --   -1.21338  -1.09090  -1.08797  -1.08649  -1.08598
 Alpha  occ. eigenvalues --   -1.08486  -1.08383  -1.08302  -1.08275  -1.08244
 Alpha  occ. eigenvalues --   -1.08142  -1.08077  -1.07922  -1.07785  -1.07642
 Alpha  occ. eigenvalues --   -1.07548  -1.07486  -1.07442  -1.07306  -1.07253
 Alpha  occ. eigenvalues --   -1.07143  -1.03293  -1.03262  -1.03098  -1.03048
 Alpha  occ. eigenvalues --   -1.02956  -1.02523  -1.02515  -1.02213  -1.02199
 Alpha  occ. eigenvalues --   -1.02112  -0.68237  -0.63085  -0.61614  -0.56075
 Alpha  occ. eigenvalues --   -0.52509  -0.47999  -0.43673  -0.41866  -0.40786
 Alpha  occ. eigenvalues --   -0.29936  -0.28148  -0.27798  -0.25884  -0.25167
 Alpha  occ. eigenvalues --   -0.24768  -0.23884  -0.23238  -0.22457  -0.21164
 Alpha  occ. eigenvalues --   -0.19491
 Alpha virt. eigenvalues --   -0.07723  -0.07245  -0.06775  -0.06644  -0.05769
 Alpha virt. eigenvalues --   -0.05310  -0.04780  -0.04347  -0.04112  -0.03333
 Alpha virt. eigenvalues --   -0.02369  -0.01735  -0.00502   0.04877   0.05758

 Mulliken charges:
               1
     1  Bi   0.143272
     2  Bi  -0.018527
     3  Ge  -0.034280
     4  Bi   0.070955
     5  Ge  -0.182841
     6  Bi   0.097383
     7  Ge  -0.160777
     8  Sn  -0.000596
     9  Sn   0.085410
 Sum of Mulliken charges =   0.00000

 Dipole moment (field-independent basis, Debye):
    X=             -0.4496    Y=             -1.5227    Z=             -0.2177  Tot=              1.6026
 Quadrupole moment (field-independent basis, Debye-Ang):
   XX=           -212.2792   YY=           -220.3131   ZZ=           -222.6134
   XY=             -0.2005   XZ=              0.7321   YZ=             -0.2696

  Exact polarizability: 377.824   2.015 367.718  -7.205   2.994 388.945
 Approx polarizability:1162.422  12.2661154.771  19.864 -14.0441252.380

                      1                      2                      3
                      A                      A                      A
 Frequencies --     24.0807                60.0168                72.9500
 Red. masses --    141.8428               135.9824               145.7127
 Frc consts  --      0.0485                 0.2886                 0.4569
 IR Inten    --      0.0898                 0.1359                 0.0291

                      4                      5                      6
                      A                      A                      A
 Frequencies --     78.5707                89.9571                92.6624
 Red. masses --    141.8883               157.3726               149.5327
 Frc consts  --      0.5161                 0.7503                 0.7565
 IR Inten    --      0.1111                 0.1471                 0.0833

                      7                      8                      9
                      A                      A                      A
 Frequencies --     98.7693               103.9014               107.5509
 Red. masses --    147.1984               136.5586               146.7089
 Frc consts  --      0.8461                 0.8686                 0.9998
 IR Inten    --      0.1679                 0.0502                 0.0706

                     10                     11                     12
                      A                      A                      A
 Frequencies --    109.6997               116.7423               122.5225
 Red. masses --    100.4539               137.4909               102.5510
 Frc consts  --      0.7122                 1.1040                 0.9070
 IR Inten    --      0.1717                 0.2852                 0.1687

                     13                     14                     15
                      A                      A                      A
 Frequencies --    139.8859               141.6315               144.9871
 Red. masses --    122.5399               121.1125               110.3424
 Frc consts  --      1.4128                 1.4314                 1.3666
 IR Inten    --      0.5425                 1.3421                 0.0112

                     16                     17                     18
                      A                      A                      A
 Frequencies --    153.8754               158.5653               170.7664
 Red. masses --     84.6486                79.1982                86.0725
 Frc consts  --      1.1809                 1.1732                 1.4788
 IR Inten    --      0.0437                 0.1529                 0.4125

                     19                     20                     21
                      A                      A                      A
 Frequencies --    177.9257               181.4103               196.1822
 Red. masses --     83.9148                83.9419                78.9422
 Frc consts  --      1.5652                 1.6276                 1.7901
 IR Inten    --      0.6020                 0.5051                 0.6554

 - Thermochemistry -
 -------------------
 Temperature   298.150 Kelvin.  Pressure   1.00000 Atm.
 Atom     1 has atomic number 83 and mass 208.98040

 Molecular mass:  1293.48874 amu.
 Principal axes and moments of inertia in atomic units:
                           1         2         3
     Eigenvalues --  ******************************
           X            0.99990   0.01012  -0.00939
           Y           -0.00996   0.99980   0.01706
           Z            0.00956  -0.01697   0.99981
 This molecule is an asymmetric top.
 Rotational symmetry number  1.
 Warning -- assumption of classical behavior for rotation
           may cause significant error
 Rotational temperatures (Kelvin)      0.00522     0.00453     0.00411
 Rotational constants (GHZ):           0.10886     0.09438     0.08556
 Zero-point vibrational energy      15208.4 (Joules/Mol)
                                    3.63491 (Kcal/Mol)
 Warning -- explicit consideration of  21 degrees of freedom as
           vibrations may cause significant error
 Vibrational temperatures:     34.65    86.35   104.96   113.05   129.43
          (Kelvin)            133.32   142.11   149.49   154.74   157.83
                              167.97   176.28   201.26   203.78   208.60
                              221.39   228.14   245.69   256.00   261.01
                              282.26

 Zero-point correction=                           0.005793 (Hartree/Particle)
 Thermal correction to Energy=                    0.023290
 Thermal correction to Enthalpy=                  0.024235
 Thermal correction to Gibbs Free Energy=        -0.048419
 Sum of electronic and zero-point Energies=          -7517.812383
 Sum of electronic and thermal Energies=             -7517.794885
 Sum of electronic and thermal Enthalpies=           -7517.793941
 Sum of electronic and thermal Free Energies=        -7517.866594

                     E (Thermal)             CV                S
                      KCal/Mol        Cal/Mol-Kelvin    Cal/Mol-Kelvin
 Total                   14.615             46.390            152.912
 Electronic               0.000              0.000              0.000
 Translational            0.889              2.981             47.349
 Rotational               0.889              2.981             37.145
 Vibrational             12.837             40.429             68.418
 Vibration     1          0.593              1.985              6.266
 Vibration     2          0.597              1.973              4.457
 Vibration     3          0.599              1.967              4.072
 Vibration     4          0.600              1.964              3.926
 Vibration     5          0.602              1.956              3.661
 Vibration     6          0.602              1.954              3.603
 Vibration     7          0.604              1.950              3.478
 Vibration     8          0.605              1.946              3.380
 Vibration     9          0.606              1.943              3.313
 Vibration    10          0.606              1.941              3.274
 Vibration    11          0.608              1.935              3.154
 Vibration    12          0.610              1.930              3.060
 Vibration    13          0.615              1.913              2.805
 Vibration    14          0.615              1.912              2.782
 Vibration    15          0.616              1.908              2.737
 Vibration    16          0.619              1.898              2.624
 Vibration    17          0.621              1.893              2.567
 Vibration    18          0.626              1.878              2.427
 Vibration    19          0.628              1.869              2.350
 Vibration    20          0.630              1.865              2.314
 Vibration    21          0.636              1.845              2.169

 Normal termination of Gaussian 09 at Thu Mar  8 09:11:32 2018.
