 Gaussian 09, Revision D.01,
 Gaussian 09:  ES64L-G09RevD.01 24-Apr-2013

 ----------------------------------------------------------------------
 #p PBE1PBE/Def2TZVP scf=(maxcycle=768) opt=(cartesian,maxcycle=512) fr
 eq
 ----------------------------------------------------------------------

 ---------------------
 01Final_coords.xyz_50
 ---------------------
 Symbolic Z-matrix:
 Charge =  0 Multiplicity = 1

 SCF Done:  E(RPBE1PBE) =  -7517.80826580     A.U. after   18 cycles
 SCF Done:  E(RPBE1PBE) =  -7517.81428278     A.U. after   13 cycles
 SCF Done:  E(RPBE1PBE) =  -7517.81584788     A.U. after   12 cycles
 SCF Done:  E(RPBE1PBE) =  -7517.81604036     A.U. after   12 cycles
 SCF Done:  E(RPBE1PBE) =  -7517.81620744     A.U. after   12 cycles
 SCF Done:  E(RPBE1PBE) =  -7517.81624411     A.U. after   10 cycles
 SCF Done:  E(RPBE1PBE) =  -7517.81626109     A.U. after   10 cycles
 SCF Done:  E(RPBE1PBE) =  -7517.81626807     A.U. after    9 cycles
 SCF Done:  E(RPBE1PBE) =  -7517.81627118     A.U. after    9 cycles
 SCF Done:  E(RPBE1PBE) =  -7517.81627486     A.U. after    9 cycles
 SCF Done:  E(RPBE1PBE) =  -7517.81627797     A.U. after    9 cycles
 SCF Done:  E(RPBE1PBE) =  -7517.81628005     A.U. after    9 cycles
 Optimization completed.
    -- Stationary point found.
 Normal termination of Gaussian 09 at Tue Mar  6 18:42:26 2018.

 ----------------------------------------------------------------------
 #P Geom=AllCheck Guess=TCheck SCRF=Check GenChk RPBE1PBE/def2TZVP Freq
 ----------------------------------------------------------------------

 Structure from the checkpoint file:  "Isomer_50.chk"
 ---------------------
 01Final_coords.xyz_50
 ---------------------
 Charge =  0 Multiplicity = 1

                         Standard orientation:
 ---------------------------------------------------------------------
 Center     Atomic      Atomic             Coordinates (Angstroms)
 Number     Number       Type             X           Y           Z
 ---------------------------------------------------------------------
      1         50           0       -1.625493    0.063874    2.207652
      2         83           0       -0.339015   -1.601151   -1.548081
      3         32           0       -0.925717    2.303392    0.673517
      4         50           0        1.663560    2.584651   -0.174135
      5         32           0       -0.084884    1.311201   -1.985389
      6         83           0       -2.428141    0.390094   -0.729903
      7         83           0        0.533522   -1.853587    1.359359
      8         32           0        1.009973    0.942521    2.055090
      9         83           0        2.210944   -0.287813   -0.592927
 ---------------------------------------------------------------------

 SCF Done:  E(RPBE1PBE) =  -7517.81628005     A.U. after    1 cycles

 The electronic state is 1-A.
 Alpha  occ. eigenvalues -- -399.10033-399.09164-399.08704 -49.91630 -49.90790
 Alpha  occ. eigenvalues --  -49.90367 -44.39736 -44.39672 -44.39636 -44.38903
 Alpha  occ. eigenvalues --  -44.38818 -44.38798 -44.38454 -44.38407 -44.38385
 Alpha  occ. eigenvalues --   -6.28154  -6.27326  -6.26927  -6.02917  -6.02608
 Alpha  occ. eigenvalues --   -6.01725  -6.01324  -5.13109  -5.12533  -4.43680
 Alpha  occ. eigenvalues --   -4.43486  -4.43359  -4.42887  -4.42633  -4.42541
 Alpha  occ. eigenvalues --   -4.42417  -4.42290  -4.42178  -3.75202  -3.75120
 Alpha  occ. eigenvalues --   -3.74886  -3.74862  -3.74785  -3.74576  -3.74053
 Alpha  occ. eigenvalues --   -3.73942  -3.73682  -3.73598  -3.73447  -3.73272
 Alpha  occ. eigenvalues --   -3.46345  -3.46275  -3.46078  -3.45798  -3.45618
 Alpha  occ. eigenvalues --   -3.45548  -1.23137  -1.23086  -1.22968  -1.22836
 Alpha  occ. eigenvalues --   -1.22818  -1.22337  -1.22271  -1.22204  -1.22025
 Alpha  occ. eigenvalues --   -1.22012  -1.21896  -1.21854  -1.21715  -1.21665
 Alpha  occ. eigenvalues --   -1.21605  -1.09385  -1.09200  -1.08863  -1.08755
 Alpha  occ. eigenvalues --   -1.08652  -1.08592  -1.08498  -1.08345  -1.08252
 Alpha  occ. eigenvalues --   -1.08138  -1.07648  -1.07551  -1.07356  -1.07327
 Alpha  occ. eigenvalues --   -1.07288  -1.07211  -1.07185  -1.07034  -1.06941
 Alpha  occ. eigenvalues --   -1.06874  -1.02617  -1.02569  -1.02494  -1.02431
 Alpha  occ. eigenvalues --   -1.02324  -1.01992  -1.01987  -1.01945  -1.01785
 Alpha  occ. eigenvalues --   -1.01708  -0.68525  -0.62434  -0.58948  -0.58699
 Alpha  occ. eigenvalues --   -0.52775  -0.48442  -0.43449  -0.42567  -0.39238
 Alpha  occ. eigenvalues --   -0.29972  -0.28218  -0.27208  -0.26179  -0.25286
 Alpha  occ. eigenvalues --   -0.25197  -0.23746  -0.22630  -0.21531  -0.21052
 Alpha  occ. eigenvalues --   -0.20081
 Alpha virt. eigenvalues --   -0.07487  -0.07117  -0.06974  -0.06551  -0.05962
 Alpha virt. eigenvalues --   -0.05115  -0.04993  -0.04687  -0.03715  -0.03006
 Alpha virt. eigenvalues --   -0.01864  -0.01779  -0.00456   0.05122   0.05210

 Mulliken charges:
               1
     1  Sn  -0.009123
     2  Bi   0.033480
     3  Ge  -0.020258
     4  Sn  -0.038834
     5  Ge  -0.053525
     6  Bi   0.019222
     7  Bi   0.013577
     8  Ge  -0.071951
     9  Bi   0.127412
 Sum of Mulliken charges =   0.00000

 Dipole moment (field-independent basis, Debye):
    X=              0.3590    Y=             -2.0328    Z=             -1.1009  Tot=              2.3395
 Quadrupole moment (field-independent basis, Debye-Ang):
   XX=           -214.1074   YY=           -217.2867   ZZ=           -222.4717
   XY=              2.1871   XZ=             -0.4824   YZ=             -0.0555

  Exact polarizability: 384.573   9.552 382.842 -10.129  -2.350 369.850
 Approx polarizability:1194.413  46.2611201.415 -30.349 -11.8231150.394

                      1                      2                      3
                      A                      A                      A
 Frequencies --     34.9690                57.9618                71.5564
 Red. masses --    160.4006               118.0443               151.6739
 Frc consts  --      0.1156                 0.2337                 0.4576
 IR Inten    --      0.0263                 0.0092                 0.1029

                      4                      5                      6
                      A                      A                      A
 Frequencies --     83.7868                93.1711                96.8106
 Red. masses --    136.8397               165.7634               135.2628
 Frc consts  --      0.5660                 0.8478                 0.7469
 IR Inten    --      0.1565                 0.1347                 0.0671

                      7                      8                      9
                      A                      A                      A
 Frequencies --     98.9040               102.7558               110.4958
 Red. masses --    113.6711               138.6925               115.7502
 Frc consts  --      0.6551                 0.8628                 0.8327
 IR Inten    --      0.0491                 0.2173                 0.0122

                     10                     11                     12
                      A                      A                      A
 Frequencies --    111.5387               117.6147               123.3241
 Red. masses --    130.4223               143.9194               111.4284
 Frc consts  --      0.9560                 1.1730                 0.9985
 IR Inten    --      0.1402                 0.0616                 0.5337

                     13                     14                     15
                      A                      A                      A
 Frequencies --    126.1360               136.0454               141.1274
 Red. masses --    107.6558               125.6490                99.4244
 Frc consts  --      1.0092                 1.3702                 1.1667
 IR Inten    --      0.3624                 0.0134                 0.0153

                     16                     17                     18
                      A                      A                      A
 Frequencies --    147.6561               158.9478               172.1156
 Red. masses --     91.0889                85.3861                84.1967
 Frc consts  --      1.1701                 1.2710                 1.4696
 IR Inten    --      0.0127                 0.0624                 0.0033

                     19                     20                     21
                      A                      A                      A
 Frequencies --    176.8056               181.0014               203.8502
 Red. masses --     84.4459                85.5230                85.1251
 Frc consts  --      1.5553                 1.6508                 2.0842
 IR Inten    --      0.4993                 0.4579                 2.2534

 - Thermochemistry -
 -------------------
 Temperature   298.150 Kelvin.  Pressure   1.00000 Atm.
 Atom     1 has atomic number 50 and mass 117.90180

 Molecular mass:  1293.48874 amu.
 Principal axes and moments of inertia in atomic units:
                           1         2         3
     Eigenvalues --  ******************************
           X            0.99810   0.05675  -0.02411
           Y           -0.05654   0.99836   0.00943
           Z            0.02461  -0.00805   0.99966
 This molecule is an asymmetric top.
 Rotational symmetry number  1.
 Warning -- assumption of classical behavior for rotation
           may cause significant error
 Rotational temperatures (Kelvin)      0.00489     0.00449     0.00419
 Rotational constants (GHZ):           0.10192     0.09355     0.08730
 Zero-point vibrational energy      15231.9 (Joules/Mol)
                                    3.64051 (Kcal/Mol)
 Warning -- explicit consideration of  21 degrees of freedom as
           vibrations may cause significant error
 Vibrational temperatures:     50.31    83.39   102.95   120.55   134.05
          (Kelvin)            139.29   142.30   147.84   158.98   160.48
                              169.22   177.44   181.48   195.74   203.05
                              212.44   228.69   247.64   254.38   260.42
                              293.29

 Zero-point correction=                           0.005802 (Hartree/Particle)
 Thermal correction to Energy=                    0.023288
 Thermal correction to Enthalpy=                  0.024232
 Thermal correction to Gibbs Free Energy=        -0.048127
 Sum of electronic and zero-point Energies=          -7517.810479
 Sum of electronic and thermal Energies=             -7517.792992
 Sum of electronic and thermal Enthalpies=           -7517.792048
 Sum of electronic and thermal Free Energies=        -7517.864407

                     E (Thermal)             CV                S
                      KCal/Mol        Cal/Mol-Kelvin    Cal/Mol-Kelvin
 Total                   14.613             46.396            152.292
 Electronic               0.000              0.000              0.000
 Translational            0.889              2.981             47.349
 Rotational               0.889              2.981             37.199
 Vibrational             12.836             40.434             67.743
 Vibration     1          0.594              1.982              5.525
 Vibration     2          0.596              1.974              4.525
 Vibration     3          0.598              1.968              4.110
 Vibration     4          0.601              1.960              3.800
 Vibration     5          0.602              1.954              3.592
 Vibration     6          0.603              1.951              3.518
 Vibration     7          0.604              1.950              3.476
 Vibration     8          0.605              1.947              3.401
 Vibration     9          0.606              1.941              3.260
 Vibration    10          0.607              1.940              3.242
 Vibration    11          0.608              1.935              3.139
 Vibration    12          0.610              1.930              3.048
 Vibration    13          0.611              1.927              3.004
 Vibration    14          0.614              1.917              2.859
 Vibration    15          0.615              1.912              2.789
 Vibration    16          0.617              1.905              2.702
 Vibration    17          0.621              1.893              2.562
 Vibration    18          0.626              1.877              2.412
 Vibration    19          0.628              1.871              2.362
 Vibration    20          0.630              1.866              2.318
 Vibration    21          0.640              1.834              2.098

 Normal termination of Gaussian 09 at Tue Mar  6 19:54:42 2018.
