 Gaussian 09, Revision D.01,
 Gaussian 09:  ES64L-G09RevD.01 24-Apr-2013

 ----------------------------------------------------------------------
 #p PBE1PBE/Def2TZVP scf=(maxcycle=768) opt=(cartesian,maxcycle=512) fr
 eq
 ----------------------------------------------------------------------

 ---------------------
 01Final_coords.xyz_27
 ---------------------
 Symbolic Z-matrix:
 Charge =  0 Multiplicity = 1

 SCF Done:  E(RPBE1PBE) =  -7517.81093206     A.U. after   16 cycles
 SCF Done:  E(RPBE1PBE) =  -7517.81655549     A.U. after   13 cycles
 SCF Done:  E(RPBE1PBE) =  -7517.81792727     A.U. after   12 cycles
 SCF Done:  E(RPBE1PBE) =  -7517.81811924     A.U. after   12 cycles
 SCF Done:  E(RPBE1PBE) =  -7517.81828215     A.U. after   11 cycles
 SCF Done:  E(RPBE1PBE) =  -7517.81830943     A.U. after   10 cycles
 SCF Done:  E(RPBE1PBE) =  -7517.81831473     A.U. after   10 cycles
 SCF Done:  E(RPBE1PBE) =  -7517.81831866     A.U. after    9 cycles
 SCF Done:  E(RPBE1PBE) =  -7517.81832061     A.U. after    9 cycles
 SCF Done:  E(RPBE1PBE) =  -7517.81832090     A.U. after    9 cycles
 SCF Done:  E(RPBE1PBE) =  -7517.81832263     A.U. after    9 cycles
 Optimization completed.
    -- Stationary point found.
 Normal termination of Gaussian 09 at Thu Mar  8 07:52:40 2018.

 ----------------------------------------------------------------------
 #P Geom=AllCheck Guess=TCheck SCRF=Check GenChk RPBE1PBE/def2TZVP Freq
 ----------------------------------------------------------------------

 Structure from the checkpoint file:  "Isomer_27.chk"
 ---------------------
 01Final_coords.xyz_27
 ---------------------
 Charge =  0 Multiplicity = 1

                         Standard orientation:
 ---------------------------------------------------------------------
 Center     Atomic      Atomic             Coordinates (Angstroms)
 Number     Number       Type             X           Y           Z
 ---------------------------------------------------------------------
      1         32           0        0.491189   -1.720280    1.616988
      2         32           0       -0.145908    0.162828   -2.422277
      3         32           0       -0.369825    1.120992    2.022763
      4         83           0       -2.169038    0.893354   -0.510766
      5         50           0       -2.155122   -0.995689    1.829408
      6         50           0       -1.299821   -2.076221   -0.854051
      7         83           0        2.190423    0.469767    1.089054
      8         83           0        0.471088    2.273697   -0.596581
      9         83           0        1.598281   -1.617996   -1.038659
 ---------------------------------------------------------------------

 SCF Done:  E(RPBE1PBE) =  -7517.81832263     A.U. after    1 cycles

 The electronic state is 1-A.
 Alpha  occ. eigenvalues -- -399.10068-399.09451-399.08874 -49.91672 -49.91080
 Alpha  occ. eigenvalues --  -49.90506 -44.39765 -44.39725 -44.39679 -44.39161
 Alpha  occ. eigenvalues --  -44.39139 -44.39091 -44.38581 -44.38563 -44.38522
 Alpha  occ. eigenvalues --   -6.28199  -6.27618  -6.27034  -6.02315  -6.02200
 Alpha  occ. eigenvalues --   -6.01843  -6.01244  -5.13381  -5.13063  -4.43682
 Alpha  occ. eigenvalues --   -4.43567  -4.43415  -4.43075  -4.43016  -4.42847
 Alpha  occ. eigenvalues --   -4.42483  -4.42417  -4.42269  -3.74621  -3.74500
 Alpha  occ. eigenvalues --   -3.74444  -3.74314  -3.74288  -3.74250  -3.74154
 Alpha  occ. eigenvalues --   -3.74079  -3.73722  -3.73588  -3.73372  -3.73198
 Alpha  occ. eigenvalues --   -3.46620  -3.46495  -3.46390  -3.46327  -3.46212
 Alpha  occ. eigenvalues --   -3.46015  -1.23157  -1.23123  -1.22993  -1.22913
 Alpha  occ. eigenvalues --   -1.22901  -1.22575  -1.22544  -1.22388  -1.22370
 Alpha  occ. eigenvalues --   -1.22324  -1.21973  -1.21953  -1.21838  -1.21766
 Alpha  occ. eigenvalues --   -1.21732  -1.08868  -1.08542  -1.08388  -1.08273
 Alpha  occ. eigenvalues --   -1.08194  -1.08141  -1.08092  -1.08038  -1.07966
 Alpha  occ. eigenvalues --   -1.07898  -1.07661  -1.07508  -1.07403  -1.07294
 Alpha  occ. eigenvalues --   -1.07261  -1.07244  -1.07145  -1.06921  -1.06867
 Alpha  occ. eigenvalues --   -1.06799  -1.02958  -1.02826  -1.02794  -1.02755
 Alpha  occ. eigenvalues --   -1.02641  -1.02519  -1.02477  -1.02407  -1.02208
 Alpha  occ. eigenvalues --   -1.02134  -0.68215  -0.62994  -0.60272  -0.57068
 Alpha  occ. eigenvalues --   -0.51869  -0.46955  -0.44967  -0.42607  -0.40024
 Alpha  occ. eigenvalues --   -0.29867  -0.28185  -0.27058  -0.26212  -0.24861
 Alpha  occ. eigenvalues --   -0.24507  -0.23526  -0.23408  -0.22606  -0.20650
 Alpha  occ. eigenvalues --   -0.20226
 Alpha virt. eigenvalues --   -0.07697  -0.06848  -0.06690  -0.06229  -0.05454
 Alpha virt. eigenvalues --   -0.05087  -0.04371  -0.04244  -0.04081  -0.03633
 Alpha virt. eigenvalues --   -0.02671  -0.01824  -0.00991   0.04483   0.05340

 Mulliken charges:
               1
     1  Ge  -0.049703
     2  Ge  -0.161768
     3  Ge  -0.052826
     4  Bi   0.118978
     5  Sn  -0.031713
     6  Sn   0.067002
     7  Bi   0.026398
     8  Bi   0.046802
     9  Bi   0.036830
 Sum of Mulliken charges =   0.00000

 Dipole moment (field-independent basis, Debye):
    X=              0.5231    Y=              0.8176    Z=             -0.1959  Tot=              0.9902
 Quadrupole moment (field-independent basis, Debye-Ang):
   XX=           -210.9697   YY=           -218.2217   ZZ=           -224.0373
   XY=              1.4497   XZ=             -0.2435   YZ=             -0.3646

  Exact polarizability: 387.829  11.087 376.830  -8.575  -0.517 367.168
 Approx polarizability:1206.079  43.5321157.574 -40.344  -7.4711164.504

                      1                      2                      3
                      A                      A                      A
 Frequencies --     44.9305                57.8700                75.2660
 Red. masses --    157.9059               148.1389               109.7474
 Frc consts  --      0.1878                 0.2923                 0.3663
 IR Inten    --      0.0241                 0.0113                 0.0420

                      4                      5                      6
                      A                      A                      A
 Frequencies --     82.1938                86.2046                99.1470
 Red. masses --    168.8581               165.3975               138.5015
 Frc consts  --      0.6721                 0.7242                 0.8022
 IR Inten    --      0.0583                 0.1355                 0.0717

                      7                      8                      9
                      A                      A                      A
 Frequencies --    102.3048               106.4818               112.0598
 Red. masses --    103.1318               112.7804               130.2666
 Frc consts  --      0.6360                 0.7534                 0.9638
 IR Inten    --      0.2018                 0.4423                 0.1985

                     10                     11                     12
                      A                      A                      A
 Frequencies --    112.5622               118.2899               120.9396
 Red. masses --    165.9767               131.9428               112.4501
 Frc consts  --      1.2390                 1.0878                 0.9691
 IR Inten    --      0.1084                 0.0541                 0.0815

                     13                     14                     15
                      A                      A                      A
 Frequencies --    134.4673               138.9175               144.2275
 Red. masses --    100.0156               113.3511               106.1946
 Frc consts  --      1.0655                 1.2888                 1.3015
 IR Inten    --      0.0566                 0.6445                 0.1067

                     16                     17                     18
                      A                      A                      A
 Frequencies --    150.2043               162.8183               165.4994
 Red. masses --     83.0990                87.7465                90.1561
 Frc consts  --      1.1046                 1.3705                 1.4549
 IR Inten    --      0.0629                 0.1683                 0.3668

                     19                     20                     21
                      A                      A                      A
 Frequencies --    172.2777               178.8440               193.4470
 Red. masses --     84.6019                84.6212                87.7481
 Frc consts  --      1.4794                 1.5947                 1.9347
 IR Inten    --      0.3228                 0.1121                 1.5308

 - Thermochemistry -
 -------------------
 Temperature   298.150 Kelvin.  Pressure   1.00000 Atm.
 Atom     1 has atomic number 32 and mass  73.92118

 Molecular mass:  1293.48874 amu.
 Principal axes and moments of inertia in atomic units:
                           1         2         3
     Eigenvalues --  ******************************
           X            0.99842   0.05401  -0.01549
           Y           -0.05416   0.99849  -0.00944
           Z            0.01496   0.01027   0.99984
 This molecule is an asymmetric top.
 Rotational symmetry number  1.
 Warning -- assumption of classical behavior for rotation
           may cause significant error
 Rotational temperatures (Kelvin)      0.00507     0.00453     0.00396
 Rotational constants (GHZ):           0.10554     0.09437     0.08257
 Zero-point vibrational energy      15305.9 (Joules/Mol)
                                    3.65821 (Kcal/Mol)
 Warning -- explicit consideration of  21 degrees of freedom as
           vibrations may cause significant error
 Vibrational temperatures:     64.64    83.26   108.29   118.26   124.03
          (Kelvin)            142.65   147.19   153.20   161.23   161.95
                              170.19   174.00   193.47   199.87   207.51
                              216.11   234.26   238.12   247.87   257.32
                              278.33

 Zero-point correction=                           0.005830 (Hartree/Particle)
 Thermal correction to Energy=                    0.023286
 Thermal correction to Enthalpy=                  0.024230
 Thermal correction to Gibbs Free Energy=        -0.047828
 Sum of electronic and zero-point Energies=          -7517.812493
 Sum of electronic and thermal Energies=             -7517.795036
 Sum of electronic and thermal Enthalpies=           -7517.794092
 Sum of electronic and thermal Free Energies=        -7517.866150

                     E (Thermal)             CV                S
                      KCal/Mol        Cal/Mol-Kelvin    Cal/Mol-Kelvin
 Total                   14.612             46.398            151.659
 Electronic               0.000              0.000              0.000
 Translational            0.889              2.981             47.349
 Rotational               0.889              2.981             37.211
 Vibrational             12.835             40.436             67.099
 Vibration     1          0.595              1.979              5.029
 Vibration     2          0.596              1.974              4.529
 Vibration     3          0.599              1.966              4.011
 Vibration     4          0.600              1.961              3.838
 Vibration     5          0.601              1.959              3.744
 Vibration     6          0.604              1.950              3.471
 Vibration     7          0.604              1.947              3.410
 Vibration     8          0.605              1.944              3.332
 Vibration     9          0.607              1.939              3.233
 Vibration    10          0.607              1.939              3.224
 Vibration    11          0.608              1.934              3.128
 Vibration    12          0.609              1.932              3.085
 Vibration    13          0.613              1.919              2.881
 Vibration    14          0.615              1.914              2.819
 Vibration    15          0.616              1.909              2.747
 Vibration    16          0.618              1.902              2.670
 Vibration    17          0.623              1.888              2.517
 Vibration    18          0.624              1.885              2.486
 Vibration    19          0.626              1.877              2.410
 Vibration    20          0.629              1.868              2.340
 Vibration    21          0.635              1.849              2.195

 Normal termination of Gaussian 09 at Thu Mar  8 08:58:05 2018.
