 Gaussian 09, Revision D.01,
 Gaussian 09:  ES64L-G09RevD.01 24-Apr-2013

 ----------------------------------------------------------------------
 #p PBE1PBE/Def2TZVP scf=(maxcycle=768) opt=(cartesian,maxcycle=512) fr
 eq
 ----------------------------------------------------------------------

 ---------------------
 01Final_coords.xyz_01
 ---------------------
 Symbolic Z-matrix:
 Charge =  0 Multiplicity = 1

 SCF Done:  E(RPBE1PBE) =  -7517.81969423     A.U. after   16 cycles
 SCF Done:  E(RPBE1PBE) =  -7517.82550243     A.U. after   13 cycles
 SCF Done:  E(RPBE1PBE) =  -7517.82684023     A.U. after   12 cycles
 SCF Done:  E(RPBE1PBE) =  -7517.82702325     A.U. after   12 cycles
 SCF Done:  E(RPBE1PBE) =  -7517.82711480     A.U. after   11 cycles
 SCF Done:  E(RPBE1PBE) =  -7517.82714522     A.U. after   10 cycles
 SCF Done:  E(RPBE1PBE) =  -7517.82715528     A.U. after    9 cycles
 SCF Done:  E(RPBE1PBE) =  -7517.82715912     A.U. after    9 cycles
 SCF Done:  E(RPBE1PBE) =  -7517.82716133     A.U. after    8 cycles
 SCF Done:  E(RPBE1PBE) =  -7517.82716259     A.U. after    8 cycles
 Optimization completed.
    -- Stationary point found.
 Normal termination of Gaussian 09 at Tue Mar  6 14:24:57 2018.

 ----------------------------------------------------------------------
 #P Geom=AllCheck Guess=TCheck SCRF=Check GenChk RPBE1PBE/def2TZVP Freq
 ----------------------------------------------------------------------

 Structure from the checkpoint file:  "Isomer_01.chk"
 ---------------------
 01Final_coords.xyz_01
 ---------------------
 Charge =  0 Multiplicity = 1

                         Standard orientation:
 ---------------------------------------------------------------------
 Center     Atomic      Atomic             Coordinates (Angstroms)
 Number     Number       Type             X           Y           Z
 ---------------------------------------------------------------------
      1         32           0        0.203555   -1.727862   -1.595886
      2         83           0       -1.885846    0.217015   -1.455045
      3         50           0        0.806147    1.539217   -1.668021
      4         83           0       -1.543776   -1.962358    0.609390
      5         83           0       -0.972967    2.121146    0.709391
      6         32           0       -0.604505   -0.073133    2.530647
      7         32           0        1.122046   -1.738981    1.420954
      8         50           0        1.733742    1.144160    1.555929
      9         83           0        2.594523   -0.627485   -0.704437
 ---------------------------------------------------------------------

 SCF Done:  E(RPBE1PBE) =  -7517.82716259     A.U. after    1 cycles

 The electronic state is 1-A.
 Alpha  occ. eigenvalues -- -399.10350-399.09588-399.08535 -49.91951 -49.91218
 Alpha  occ. eigenvalues --  -49.90191 -44.40029 -44.39993 -44.39986 -44.39305
 Alpha  occ. eigenvalues --  -44.39271 -44.39228 -44.38261 -44.38242 -44.38210
 Alpha  occ. eigenvalues --   -6.28479  -6.27765  -6.26732  -6.02095  -6.01661
 Alpha  occ. eigenvalues --   -6.01596  -6.01297  -5.14080  -5.13525  -4.43911
 Alpha  occ. eigenvalues --   -4.43818  -4.43774  -4.43238  -4.43155  -4.42987
 Alpha  occ. eigenvalues --   -4.42181  -4.42100  -4.41998  -3.74365  -3.74200
 Alpha  occ. eigenvalues --   -3.74138  -3.73934  -3.73872  -3.73867  -3.73684
 Alpha  occ. eigenvalues --   -3.73670  -3.73627  -3.73607  -3.73412  -3.73264
 Alpha  occ. eigenvalues --   -3.47289  -3.47200  -3.47104  -3.46752  -3.46685
 Alpha  occ. eigenvalues --   -3.46503  -1.23372  -1.23342  -1.23292  -1.23266
 Alpha  occ. eigenvalues --   -1.23212  -1.22746  -1.22703  -1.22564  -1.22556
 Alpha  occ. eigenvalues --   -1.22474  -1.21646  -1.21629  -1.21566  -1.21472
 Alpha  occ. eigenvalues --   -1.21440  -1.08517  -1.08122  -1.08077  -1.08019
 Alpha  occ. eigenvalues --   -1.07837  -1.07666  -1.07587  -1.07541  -1.07511
 Alpha  occ. eigenvalues --   -1.07501  -1.07430  -1.07319  -1.07293  -1.07283
 Alpha  occ. eigenvalues --   -1.07236  -1.07164  -1.07116  -1.06955  -1.06910
 Alpha  occ. eigenvalues --   -1.06843  -1.03472  -1.03456  -1.03387  -1.03329
 Alpha  occ. eigenvalues --   -1.03284  -1.02971  -1.02936  -1.02835  -1.02794
 Alpha  occ. eigenvalues --   -1.02708  -0.67640  -0.62471  -0.61133  -0.58627
 Alpha  occ. eigenvalues --   -0.50276  -0.46130  -0.44634  -0.42770  -0.41726
 Alpha  occ. eigenvalues --   -0.29575  -0.27720  -0.26495  -0.26254  -0.25633
 Alpha  occ. eigenvalues --   -0.24704  -0.23725  -0.23169  -0.22405  -0.21277
 Alpha  occ. eigenvalues --   -0.20606
 Alpha virt. eigenvalues --   -0.08079  -0.07433  -0.06155  -0.05615  -0.05432
 Alpha virt. eigenvalues --   -0.04744  -0.04573  -0.04081  -0.03713  -0.03248
 Alpha virt. eigenvalues --   -0.02895  -0.02342  -0.01557   0.04704   0.05658

 Mulliken charges:
               1
     1  Ge  -0.047494
     2  Bi   0.015935
     3  Sn   0.056800
     4  Bi   0.059718
     5  Bi   0.022253
     6  Ge  -0.135974
     7  Ge  -0.032772
     8  Sn   0.059602
     9  Bi   0.001931
 Sum of Mulliken charges =   0.00000

 Dipole moment (field-independent basis, Debye):
    X=             -0.3524    Y=              0.6043    Z=             -1.2422  Tot=              1.4256
 Quadrupole moment (field-independent basis, Debye-Ang):
   XX=           -211.9353   YY=           -218.9655   ZZ=           -222.9053
   XY=              1.0933   XZ=              0.1263   YZ=             -0.1015

  Exact polarizability: 385.583   4.445 374.216   1.494  -2.226 372.566
 Approx polarizability:1196.917   0.6091138.358 -13.054   0.4151167.142

                      1                      2                      3
                      A                      A                      A
 Frequencies --     27.3314                52.3927                67.2382
 Red. masses --    144.7696               130.3774               141.7059
 Frc consts  --      0.0637                 0.2109                 0.3775
 IR Inten    --      0.0053                 0.0559                 0.0863

                      4                      5                      6
                      A                      A                      A
 Frequencies --     79.5165                90.1347                98.1881
 Red. masses --    149.5109               147.7823               131.2690
 Frc consts  --      0.5570                 0.7074                 0.7456
 IR Inten    --      0.0378                 0.0806                 0.1587

                      7                      8                      9
                      A                      A                      A
 Frequencies --    105.0571               106.6263               113.5028
 Red. masses --    116.3873               167.5363               150.5627
 Frc consts  --      0.7568                 1.1222                 1.1428
 IR Inten    --      0.1075                 0.0606                 0.0217

                     10                     11                     12
                      A                      A                      A
 Frequencies --    116.3024               121.4445               124.8481
 Red. masses --    107.7830               115.4088               111.4972
 Frc consts  --      0.8590                 1.0029                 1.0239
 IR Inten    --      0.2791                 0.4402                 0.1935

                     13                     14                     15
                      A                      A                      A
 Frequencies --    134.4747               143.9214               146.9904
 Red. masses --    128.5675               115.9805                83.8965
 Frc consts  --      1.3698                 1.4154                 1.0680
 IR Inten    --      0.4378                 0.1175                 0.1360

                     16                     17                     18
                      A                      A                      A
 Frequencies --    147.0591               158.4974               170.0218
 Red. masses --    101.6502                83.8338                85.3832
 Frc consts  --      1.2952                 1.2408                 1.4542
 IR Inten    --      0.3192                 0.0182                 0.0423

                     19                     20                     21
                      A                      A                      A
 Frequencies --    177.7627               183.7881               199.0399
 Red. masses --     87.3295                84.3837                81.1268
 Frc consts  --      1.6259                 1.6794                 1.8936
 IR Inten    --      0.5372                 0.3715                 0.4622

 - Thermochemistry -
 -------------------
 Temperature   298.150 Kelvin.  Pressure   1.00000 Atm.
 Atom     1 has atomic number 32 and mass  73.92118

 Molecular mass:  1293.48874 amu.
 Principal axes and moments of inertia in atomic units:
                           1         2         3
     Eigenvalues --  ******************************
           X            0.99985   0.01577   0.00743
           Y           -0.01570   0.99983  -0.00989
           Z           -0.00758   0.00977   0.99992
 This molecule is an asymmetric top.
 Rotational symmetry number  1.
 Warning -- assumption of classical behavior for rotation
           may cause significant error
 Rotational temperatures (Kelvin)      0.00498     0.00437     0.00397
 Rotational constants (GHZ):           0.10381     0.09101     0.08264
 Zero-point vibrational energy      15337.0 (Joules/Mol)
                                    3.66562 (Kcal/Mol)
 Warning -- explicit consideration of  21 degrees of freedom as
           vibrations may cause significant error
 Vibrational temperatures:     39.32    75.38    96.74   114.41   129.68
          (Kelvin)            141.27   151.15   153.41   163.30   167.33
                              174.73   179.63   193.48   207.07   211.49
                              211.59   228.04   244.62   255.76   264.43
                              286.37

 Zero-point correction=                           0.005842 (Hartree/Particle)
 Thermal correction to Energy=                    0.023300
 Thermal correction to Enthalpy=                  0.024244
 Thermal correction to Gibbs Free Energy=        -0.048275
 Sum of electronic and zero-point Energies=          -7517.821321
 Sum of electronic and thermal Energies=             -7517.803862
 Sum of electronic and thermal Enthalpies=           -7517.802918
 Sum of electronic and thermal Free Energies=        -7517.875438

                     E (Thermal)             CV                S
                      KCal/Mol        Cal/Mol-Kelvin    Cal/Mol-Kelvin
 Total                   14.621             46.370            152.630
 Electronic               0.000              0.000              0.000
 Translational            0.889              2.981             47.349
 Rotational               0.889              2.981             37.263
 Vibrational             12.844             40.408             68.019
 Vibration     1          0.593              1.984              6.014
 Vibration     2          0.596              1.977              4.725
 Vibration     3          0.598              1.970              4.233
 Vibration     4          0.600              1.963              3.903
 Vibration     5          0.602              1.956              3.657
 Vibration     6          0.604              1.950              3.490
 Vibration     7          0.605              1.945              3.358
 Vibration     8          0.606              1.944              3.329
 Vibration     9          0.607              1.938              3.208
 Vibration    10          0.608              1.936              3.161
 Vibration    11          0.609              1.931              3.077
 Vibration    12          0.610              1.928              3.024
 Vibration    13          0.613              1.919              2.881
 Vibration    14          0.616              1.909              2.751
 Vibration    15          0.617              1.906              2.711
 Vibration    16          0.617              1.906              2.710
 Vibration    17          0.621              1.893              2.568
 Vibration    18          0.625              1.879              2.435
 Vibration    19          0.628              1.870              2.352
 Vibration    20          0.631              1.862              2.290
 Vibration    21          0.637              1.841              2.142

 Normal termination of Gaussian 09 at Tue Mar  6 15:35:07 2018.
