 Gaussian 09, Revision D.01,
 Gaussian 09:  ES64L-G09RevD.01 24-Apr-2013

 ----------------------------------------------------------------------
 #p PBE1PBE/Def2TZVP scf=(maxcycle=768) opt=(cartesian,maxcycle=512) fr
 eq
 ----------------------------------------------------------------------

 ---------------------
 01Final_coords.xyz_31
 ---------------------
 Symbolic Z-matrix:
 Charge =  0 Multiplicity = 1

 SCF Done:  E(RPBE1PBE) =  -7517.81376157     A.U. after   17 cycles
 SCF Done:  E(RPBE1PBE) =  -7517.81967427     A.U. after   12 cycles
 SCF Done:  E(RPBE1PBE) =  -7517.82117502     A.U. after   12 cycles
 SCF Done:  E(RPBE1PBE) =  -7517.82129888     A.U. after   10 cycles
 SCF Done:  E(RPBE1PBE) =  -7517.82135534     A.U. after   10 cycles
 SCF Done:  E(RPBE1PBE) =  -7517.82136615     A.U. after   10 cycles
 SCF Done:  E(RPBE1PBE) =  -7517.82137070     A.U. after    9 cycles
 Optimization completed.
    -- Stationary point found.
 Normal termination of Gaussian 09 at Thu Mar  8 07:25:40 2018.

 ----------------------------------------------------------------------
 #P Geom=AllCheck Guess=TCheck SCRF=Check GenChk RPBE1PBE/def2TZVP Freq
 ----------------------------------------------------------------------

 Structure from the checkpoint file:  "Isomer_31.chk"
 ---------------------
 01Final_coords.xyz_31
 ---------------------
 Charge =  0 Multiplicity = 1

                         Standard orientation:
 ---------------------------------------------------------------------
 Center     Atomic      Atomic             Coordinates (Angstroms)
 Number     Number       Type             X           Y           Z
 ---------------------------------------------------------------------
      1         50           0        0.003832    2.598289    1.258479
      2         83           0        2.095004   -1.483354    0.024078
      3         83           0       -1.563374    1.293493   -0.957802
      4         32           0       -0.002715   -1.895053    1.894282
      5         32           0       -1.347753    0.305567    2.144162
      6         50           0       -0.000906   -1.144711   -2.113337
      7         32           0        1.347153    0.301471    2.145900
      8         83           0       -2.098596   -1.478775    0.023107
      9         83           0        1.566480    1.289571   -0.958734
 ---------------------------------------------------------------------

 SCF Done:  E(RPBE1PBE) =  -7517.82137070     A.U. after    1 cycles

 The electronic state is 1-A.
 Alpha  occ. eigenvalues -- -399.09242-399.09241-399.08810 -49.90879 -49.90877
 Alpha  occ. eigenvalues --  -49.90474 -44.38983 -44.38982 -44.38916 -44.38914
 Alpha  occ. eigenvalues --  -44.38886 -44.38884 -44.38549 -44.38530 -44.38486
 Alpha  occ. eigenvalues --   -6.27433  -6.27431  -6.27036  -6.02697  -6.02694
 Alpha  occ. eigenvalues --   -6.01315  -6.01311  -5.13699  -5.13368  -4.42965
 Alpha  occ. eigenvalues --   -4.42963  -4.42775  -4.42773  -4.42650  -4.42645
 Alpha  occ. eigenvalues --   -4.42507  -4.42411  -4.42292  -3.74968  -3.74959
 Alpha  occ. eigenvalues --   -3.74860  -3.74857  -3.74689  -3.74685  -3.73644
 Alpha  occ. eigenvalues --   -3.73640  -3.73503  -3.73498  -3.73222  -3.73218
 Alpha  occ. eigenvalues --   -3.46950  -3.46847  -3.46648  -3.46598  -3.46564
 Alpha  occ. eigenvalues --   -3.46306  -1.22492  -1.22464  -1.22437  -1.22431
 Alpha  occ. eigenvalues --   -1.22382  -1.22289  -1.22219  -1.22199  -1.22164
 Alpha  occ. eigenvalues --   -1.21997  -1.21963  -1.21935  -1.21733  -1.21695
 Alpha  occ. eigenvalues --   -1.21682  -1.09133  -1.08828  -1.08767  -1.08637
 Alpha  occ. eigenvalues --   -1.08546  -1.08528  -1.08419  -1.08385  -1.08267
 Alpha  occ. eigenvalues --   -1.08136  -1.07307  -1.07302  -1.07225  -1.07189
 Alpha  occ. eigenvalues --   -1.07108  -1.07102  -1.06916  -1.06885  -1.06867
 Alpha  occ. eigenvalues --   -1.06806  -1.03165  -1.03161  -1.02943  -1.02891
 Alpha  occ. eigenvalues --   -1.02866  -1.02850  -1.02822  -1.02675  -1.02664
 Alpha  occ. eigenvalues --   -1.02556  -0.68014  -0.62823  -0.60785  -0.55969
 Alpha  occ. eigenvalues --   -0.55025  -0.45920  -0.43792  -0.43531  -0.39912
 Alpha  occ. eigenvalues --   -0.29943  -0.27909  -0.27207  -0.25856  -0.25665
 Alpha  occ. eigenvalues --   -0.24904  -0.23604  -0.23218  -0.21841  -0.21295
 Alpha  occ. eigenvalues --   -0.20113
 Alpha virt. eigenvalues --   -0.07920  -0.07324  -0.06436  -0.06045  -0.05925
 Alpha virt. eigenvalues --   -0.05850  -0.05401  -0.04844  -0.03877  -0.02269
 Alpha virt. eigenvalues --   -0.02053  -0.01773  -0.00763   0.05200   0.05805

 Mulliken charges:
               1
     1  Sn  -0.035200
     2  Bi   0.011595
     3  Bi   0.085415
     4  Ge  -0.080451
     5  Ge  -0.034589
     6  Sn  -0.009256
     7  Ge  -0.034590
     8  Bi   0.011746
     9  Bi   0.085329
 Sum of Mulliken charges =   0.00000

 Dipole moment (field-independent basis, Debye):
    X=             -0.0003    Y=              0.5194    Z=             -2.0572  Tot=              2.1218
 Quadrupole moment (field-independent basis, Debye-Ang):
   XX=           -216.2960   YY=           -214.3557   ZZ=           -223.8569
   XY=              0.0084   XZ=              0.0040   YZ=              0.7860

  Exact polarizability: 371.663   0.044 389.093   0.019  14.147 375.609
 Approx polarizability:1153.801   0.3241239.037   0.120  33.7561174.573

                      1                      2                      3
                      A                      A                      A
 Frequencies --     29.8020                34.7575                77.8700
 Red. masses --    130.2903               126.6180               177.2573
 Frc consts  --      0.0682                 0.0901                 0.6333
 IR Inten    --      0.1103                 0.1135                 0.0005

                      4                      5                      6
                      A                      A                      A
 Frequencies --     79.5421                83.0722                99.2054
 Red. masses --    158.6080               124.7063               139.1488
 Frc consts  --      0.5912                 0.5070                 0.8069
 IR Inten    --      0.0085                 0.2452                 0.0256

                      7                      8                      9
                      A                      A                      A
 Frequencies --    104.4319               105.2416               110.8690
 Red. masses --    156.4466               142.1863               134.6830
 Frc consts  --      1.0053                 0.9279                 0.9754
 IR Inten    --      0.0444                 0.1038                 0.0581

                     10                     11                     12
                      A                      A                      A
 Frequencies --    111.2172               116.3572               132.2166
 Red. masses --    124.1177               128.2748                86.3083
 Frc consts  --      0.9045                 1.0232                 0.8889
 IR Inten    --      0.0269                 0.2051                 0.2302

                     13                     14                     15
                      A                      A                      A
 Frequencies --    137.4876               138.3906               142.8955
 Red. masses --     97.0301               115.4930               114.2142
 Frc consts  --      1.0806                 1.3032                 1.3741
 IR Inten    --      0.0615                 0.3496                 0.9744

                     16                     17                     18
                      A                      A                      A
 Frequencies --    142.9254               144.8485               149.1211
 Red. masses --    112.5889                85.9892               102.8342
 Frc consts  --      1.3551                 1.0630                 1.3473
 IR Inten    --      0.7999                 0.1248                 0.0385

                     19                     20                     21
                      A                      A                      A
 Frequencies --    193.4252               201.1987               217.1091
 Red. masses --     81.2153                78.3305                75.1656
 Frc consts  --      1.7903                 1.8682                 2.0875
 IR Inten    --      1.4277                 0.2493                 0.2538

 - Thermochemistry -
 -------------------
 Temperature   298.150 Kelvin.  Pressure   1.00000 Atm.
 Atom     1 has atomic number 50 and mass 117.90180

 Molecular mass:  1293.48874 amu.
 Principal axes and moments of inertia in atomic units:
                           1         2         3
     Eigenvalues --  ******************************
           X            1.00000   0.00029   0.00003
           Y           -0.00029   0.99929   0.03775
           Z           -0.00002  -0.03775   0.99929
 This molecule is an asymmetric top.
 Rotational symmetry number  1.
 Warning -- assumption of classical behavior for rotation
           may cause significant error
 Rotational temperatures (Kelvin)      0.00496     0.00469     0.00406
 Rotational constants (GHZ):           0.10345     0.09774     0.08459
 Zero-point vibrational energy      15264.3 (Joules/Mol)
                                    3.64824 (Kcal/Mol)
 Warning -- explicit consideration of  21 degrees of freedom as
           vibrations may cause significant error
 Vibrational temperatures:     42.88    50.01   112.04   114.44   119.52
          (Kelvin)            142.73   150.25   151.42   159.52   160.02
                              167.41   190.23   197.81   199.11   205.59
                              205.64   208.40   214.55   278.30   289.48
                              312.37

 Zero-point correction=                           0.005814 (Hartree/Particle)
 Thermal correction to Energy=                    0.023307
 Thermal correction to Enthalpy=                  0.024251
 Thermal correction to Gibbs Free Energy=        -0.048563
 Sum of electronic and zero-point Energies=          -7517.815557
 Sum of electronic and thermal Energies=             -7517.798064
 Sum of electronic and thermal Enthalpies=           -7517.797120
 Sum of electronic and thermal Free Energies=        -7517.869934

                     E (Thermal)             CV                S
                      KCal/Mol        Cal/Mol-Kelvin    Cal/Mol-Kelvin
 Total                   14.625             46.359            153.249
 Electronic               0.000              0.000              0.000
 Translational            0.889              2.981             47.349
 Rotational               0.889              2.981             37.172
 Vibrational             12.848             40.398             68.728
 Vibration     1          0.594              1.984              5.843
 Vibration     2          0.594              1.983              5.538
 Vibration     3          0.599              1.964              3.944
 Vibration     4          0.600              1.963              3.902
 Vibration     5          0.600              1.961              3.817
 Vibration     6          0.604              1.950              3.470
 Vibration     7          0.605              1.946              3.370
 Vibration     8          0.605              1.945              3.355
 Vibration     9          0.607              1.940              3.254
 Vibration    10          0.607              1.940              3.248
 Vibration    11          0.608              1.936              3.160
 Vibration    12          0.612              1.921              2.914
 Vibration    13          0.614              1.916              2.839
 Vibration    14          0.614              1.915              2.826
 Vibration    15          0.616              1.910              2.765
 Vibration    16          0.616              1.910              2.764
 Vibration    17          0.616              1.908              2.739
 Vibration    18          0.618              1.904              2.683
 Vibration    19          0.635              1.849              2.195
 Vibration    20          0.638              1.838              2.122
 Vibration    21          0.646              1.815              1.983

 Normal termination of Gaussian 09 at Thu Mar  8 08:37:48 2018.
