 Gaussian 09, Revision D.01,
 Gaussian 09:  ES64L-G09RevD.01 24-Apr-2013

 ----------------------------------------------------------------------
 #p PBE1PBE/Def2TZVP scf=(maxcycle=768) opt=(cartesian,maxcycle=512) fr
 eq
 ----------------------------------------------------------------------

 ---------------------
 01Final_coords.xyz_56
 ---------------------
 Symbolic Z-matrix:
 Charge =  0 Multiplicity = 1

 SCF Done:  E(RPBE1PBE) =  -7517.80366584     A.U. after   18 cycles
 SCF Done:  E(RPBE1PBE) =  -7517.81008348     A.U. after   13 cycles
 SCF Done:  E(RPBE1PBE) =  -7517.81155174     A.U. after   12 cycles
 SCF Done:  E(RPBE1PBE) =  -7517.81167280     A.U. after   11 cycles
 SCF Done:  E(RPBE1PBE) =  -7517.81174870     A.U. after   11 cycles
 SCF Done:  E(RPBE1PBE) =  -7517.81177941     A.U. after   11 cycles
 SCF Done:  E(RPBE1PBE) =  -7517.81178428     A.U. after   10 cycles
 SCF Done:  E(RPBE1PBE) =  -7517.81178527     A.U. after   11 cycles
 SCF Done:  E(RPBE1PBE) =  -7517.81178765     A.U. after   10 cycles
 SCF Done:  E(RPBE1PBE) =  -7517.81178876     A.U. after   10 cycles
 SCF Done:  E(RPBE1PBE) =  -7517.81764824     A.U. after   13 cycles
 SCF Done:  E(RPBE1PBE) =  -7517.81799873     A.U. after   12 cycles
 SCF Done:  E(RPBE1PBE) =  -7517.81813735     A.U. after   12 cycles
 SCF Done:  E(RPBE1PBE) =  -7517.81820345     A.U. after   11 cycles
 SCF Done:  E(RPBE1PBE) =  -7517.81823661     A.U. after   11 cycles
 SCF Done:  E(RPBE1PBE) =  -7517.81824266     A.U. after    9 cycles
 SCF Done:  E(RPBE1PBE) =  -7517.81824817     A.U. after   10 cycles
 SCF Done:  E(RPBE1PBE) =  -7517.81824964     A.U. after    9 cycles
 SCF Done:  E(RPBE1PBE) =  -7517.81825062     A.U. after   10 cycles
 SCF Done:  E(RPBE1PBE) =  -7517.81825152     A.U. after    9 cycles
 Optimization completed.
    -- Stationary point found.
 Optimization completed.
    -- Stationary point found.

                         Standard orientation:
 ---------------------------------------------------------------------
 Center     Atomic      Atomic             Coordinates (Angstroms)
 Number     Number       Type             X           Y           Z
 ---------------------------------------------------------------------
      1         83           0       -1.537204   -1.170212   -1.111612
      2         32           0       -0.152750    2.521313    0.567880
      3         83           0       -0.037436   -1.808116    1.476930
      4         50           0       -2.208774    1.727146   -1.116883
      5         83           0        1.469217   -1.383326   -1.122334
      6         83           0        2.274228    1.263290    0.065627
      7         50           0       -1.975830    0.538510    1.653125
      8         32           0        0.698099    0.788278    2.404592
      9         32           0        0.367757    1.186703   -2.017058
 ---------------------------------------------------------------------

 The electronic state is 1-A.
 Alpha  occ. eigenvalues -- -399.10053-399.08747-399.08274 -49.91656 -49.90404
 Alpha  occ. eigenvalues --  -49.89931 -44.39764 -44.39696 -44.39663 -44.38492
 Alpha  occ. eigenvalues --  -44.38443 -44.38422 -44.38009 -44.37971 -44.37955
 Alpha  occ. eigenvalues --   -6.28183  -6.26961  -6.26475  -6.02818  -6.02673
 Alpha  occ. eigenvalues --   -6.01775  -6.01544  -5.13224  -5.13061  -4.43714
 Alpha  occ. eigenvalues --   -4.43509  -4.43394  -4.42455  -4.42318  -4.42213
 Alpha  occ. eigenvalues --   -4.41948  -4.41804  -4.41760  -3.75113  -3.75009
 Alpha  occ. eigenvalues --   -3.74948  -3.74828  -3.74756  -3.74668  -3.74123
 Alpha  occ. eigenvalues --   -3.73981  -3.73898  -3.73655  -3.73640  -3.73521
 Alpha  occ. eigenvalues --   -3.46563  -3.46312  -3.46301  -3.46214  -3.46175
 Alpha  occ. eigenvalues --   -3.46022  -1.23168  -1.23114  -1.23007  -1.22870
 Alpha  occ. eigenvalues --   -1.22846  -1.21962  -1.21908  -1.21795  -1.21760
 Alpha  occ. eigenvalues --   -1.21687  -1.21387  -1.21370  -1.21313  -1.21189
 Alpha  occ. eigenvalues --   -1.21168  -1.09366  -1.09107  -1.08821  -1.08798
 Alpha  occ. eigenvalues --   -1.08589  -1.08502  -1.08446  -1.08407  -1.08276
 Alpha  occ. eigenvalues --   -1.08178  -1.07730  -1.07595  -1.07539  -1.07463
 Alpha  occ. eigenvalues --   -1.07371  -1.07332  -1.07265  -1.07214  -1.07167
 Alpha  occ. eigenvalues --   -1.07097  -1.02912  -1.02759  -1.02648  -1.02611
 Alpha  occ. eigenvalues --   -1.02538  -1.02493  -1.02449  -1.02350  -1.02179
 Alpha  occ. eigenvalues --   -1.02080  -0.68562  -0.62534  -0.59210  -0.58608
 Alpha  occ. eigenvalues --   -0.52300  -0.48863  -0.43248  -0.42407  -0.39589
 Alpha  occ. eigenvalues --   -0.30031  -0.28406  -0.26921  -0.26276  -0.25429
 Alpha  occ. eigenvalues --   -0.25039  -0.23742  -0.22517  -0.21765  -0.21003
 Alpha  occ. eigenvalues --   -0.20307
 Alpha virt. eigenvalues --   -0.07740  -0.07451  -0.06846  -0.06505  -0.05957
 Alpha virt. eigenvalues --   -0.05229  -0.05115  -0.04288  -0.03675  -0.02301
 Alpha virt. eigenvalues --   -0.02214  -0.01556  -0.01134   0.04725   0.05850

 Mulliken charges:
               1
     1  Bi   0.100711
     2  Ge  -0.027149
     3  Bi   0.037842
     4  Sn  -0.036373
     5  Bi   0.023902
     6  Bi   0.048374
     7  Sn   0.054338
     8  Ge  -0.146425
     9  Ge  -0.055220
 Sum of Mulliken charges =   0.00000

 Dipole moment (field-independent basis, Debye):
    X=              0.3813    Y=             -2.0639    Z=             -0.9828  Tot=              2.3176
 Quadrupole moment (field-independent basis, Debye-Ang):
   XX=           -212.4837   YY=           -218.9050   ZZ=           -223.0165
   XY=             -1.1717   XZ=              0.1036   YZ=             -0.1497

  Exact polarizability: 389.808 -11.745 375.099   0.050  -3.181 368.572
 Approx polarizability:1215.431 -52.6311167.058  16.362  -8.9201163.609

                      1                      2                      3
                      A                      A                      A
 Frequencies --     39.0384                62.1208                70.1354
 Red. masses --    159.1598               122.4223               154.9317
 Frc consts  --      0.1429                 0.2783                 0.4490
 IR Inten    --      0.0143                 0.0285                 0.0524

                      4                      5                      6
                      A                      A                      A
 Frequencies --     86.8809                90.3419                97.9284
 Red. masses --    152.7103               132.5277               176.5821
 Frc consts  --      0.6792                 0.6373                 0.9977
 IR Inten    --      0.0394                 0.1520                 0.0174

                      7                      8                      9
                      A                      A                      A
 Frequencies --     98.7437               104.3769               109.9479
 Red. masses --    144.9295               121.3210               127.1346
 Frc consts  --      0.8326                 0.7787                 0.9055
 IR Inten    --      0.1277                 0.0610                 0.2294

                     10                     11                     12
                      A                      A                      A
 Frequencies --    112.2125               118.0797               122.7596
 Red. masses --    133.2907                97.4927               119.7503
 Frc consts  --      0.9889                 0.8009                 1.0633
 IR Inten    --      0.0601                 0.7319                 0.1411

                     13                     14                     15
                      A                      A                      A
 Frequencies --    133.1648               136.6488               146.5817
 Red. masses --    113.8767               161.1908                82.0983
 Frc consts  --      1.1898                 1.7734                 1.0393
 IR Inten    --      0.4667                 0.0150                 0.0744

                     16                     17                     18
                      A                      A                      A
 Frequencies --    148.0243               159.1890               170.4563
 Red. masses --     89.2384                84.9377                84.8334
 Frc consts  --      1.1520                 1.2682                 1.4523
 IR Inten    --      0.0401                 0.0072                 0.2105

                     19                     20                     21
                      A                      A                      A
 Frequencies --    176.0545               183.9041               202.4016
 Red. masses --     87.1775                83.4556                82.2070
 Frc consts  --      1.5920                 1.6630                 1.9842
 IR Inten    --      0.5102                 0.8035                 1.1843

 - Thermochemistry -
 -------------------
 Temperature   298.150 Kelvin.  Pressure   1.00000 Atm.
 Atom     1 has atomic number 83 and mass 208.98040

 Molecular mass:  1293.48874 amu.
 Principal axes and moments of inertia in atomic units:
                           1         2         3
     Eigenvalues --  ******************************
           X            0.99607  -0.08853  -0.00092
           Y            0.08852   0.99607  -0.00328
           Z            0.00121   0.00318   0.99999
 This molecule is an asymmetric top.
 Rotational symmetry number  1.
 Warning -- assumption of classical behavior for rotation
           may cause significant error
 Rotational temperatures (Kelvin)      0.00495     0.00457     0.00417
 Rotational constants (GHZ):           0.10307     0.09515     0.08690
 Zero-point vibrational energy      15366.0 (Joules/Mol)
                                    3.67256 (Kcal/Mol)
 Warning -- explicit consideration of  21 degrees of freedom as
           vibrations may cause significant error
 Vibrational temperatures:     56.17    89.38   100.91   125.00   129.98
          (Kelvin)            140.90   142.07   150.17   158.19   161.45
                              169.89   176.62   191.59   196.61   210.90
                              212.97   229.04   245.25   253.30   264.60
                              291.21

 Zero-point correction=                           0.005853 (Hartree/Particle)
 Thermal correction to Energy=                    0.023296
 Thermal correction to Enthalpy=                  0.024240
 Thermal correction to Gibbs Free Energy=        -0.047841
 Sum of electronic and zero-point Energies=          -7517.812399
 Sum of electronic and thermal Energies=             -7517.794955
 Sum of electronic and thermal Enthalpies=           -7517.794011
 Sum of electronic and thermal Free Energies=        -7517.866093

                     E (Thermal)             CV                S
                      KCal/Mol        Cal/Mol-Kelvin    Cal/Mol-Kelvin
 Total                   14.618             46.379            151.708
 Electronic               0.000              0.000              0.000
 Translational            0.889              2.981             47.349
 Rotational               0.889              2.981             37.176
 Vibrational             12.841             40.417             67.183
 Vibration     1          0.594              1.981              5.307
 Vibration     2          0.597              1.972              4.389
 Vibration     3          0.598              1.968              4.150
 Vibration     4          0.601              1.958              3.729
 Vibration     5          0.602              1.956              3.653
 Vibration     6          0.603              1.951              3.495
 Vibration     7          0.604              1.950              3.479
 Vibration     8          0.605              1.946              3.371
 Vibration     9          0.606              1.941              3.270
 Vibration    10          0.607              1.939              3.230
 Vibration    11          0.608              1.934              3.132
 Vibration    12          0.610              1.930              3.056
 Vibration    13          0.613              1.920              2.900
 Vibration    14          0.614              1.917              2.850
 Vibration    15          0.617              1.906              2.716
 Vibration    16          0.617              1.905              2.697
 Vibration    17          0.621              1.892              2.559
 Vibration    18          0.626              1.879              2.430
 Vibration    19          0.628              1.872              2.370
 Vibration    20          0.631              1.862              2.288
 Vibration    21          0.639              1.836              2.111

 Normal termination of Gaussian 09 at Fri Mar  9 06:11:26 2018.
