 Gaussian 09, Revision D.01,
 Gaussian 09:  ES64L-G09RevD.01 24-Apr-2013

 ----------------------------------------------------------------------
 #p PBE1PBE/Def2TZVP scf=(maxcycle=768) opt=(cartesian,maxcycle=512) fr
 eq
 ----------------------------------------------------------------------

 ---------------------
 01Final_coords.xyz_07
 ---------------------
 Symbolic Z-matrix:
 Charge =  0 Multiplicity = 1

 SCF Done:  E(RPBE1PBE) =  -7517.81596068     A.U. after   16 cycles
 SCF Done:  E(RPBE1PBE) =  -7517.82152732     A.U. after   12 cycles
 SCF Done:  E(RPBE1PBE) =  -7517.82284839     A.U. after   12 cycles
 SCF Done:  E(RPBE1PBE) =  -7517.82302067     A.U. after   11 cycles
 SCF Done:  E(RPBE1PBE) =  -7517.82314155     A.U. after   11 cycles
 SCF Done:  E(RPBE1PBE) =  -7517.82316630     A.U. after   10 cycles
 SCF Done:  E(RPBE1PBE) =  -7517.82318633     A.U. after   10 cycles
 SCF Done:  E(RPBE1PBE) =  -7517.82319853     A.U. after   10 cycles
 SCF Done:  E(RPBE1PBE) =  -7517.82320810     A.U. after   10 cycles
 SCF Done:  E(RPBE1PBE) =  -7517.82321616     A.U. after   10 cycles
 SCF Done:  E(RPBE1PBE) =  -7517.82322100     A.U. after    9 cycles
 Optimization completed.
    -- Stationary point found.
 Normal termination of Gaussian 09 at Thu Mar  8 07:50:11 2018.

 ----------------------------------------------------------------------
 #P Geom=AllCheck Guess=TCheck SCRF=Check GenChk RPBE1PBE/def2TZVP Freq
 ----------------------------------------------------------------------

 Structure from the checkpoint file:  "Isomer_07.chk"
 ---------------------
 01Final_coords.xyz_07
 ---------------------
 Charge =  0 Multiplicity = 1

                         Standard orientation:
 ---------------------------------------------------------------------
 Center     Atomic      Atomic             Coordinates (Angstroms)
 Number     Number       Type             X           Y           Z
 ---------------------------------------------------------------------
      1         83           0       -2.502215   -0.000026   -1.128954
      2         32           0       -0.310924   -1.632663   -1.662248
      3         83           0        1.268008   -2.018903    0.680605
      4         32           0       -0.311033    1.632710   -1.662222
      5         83           0        1.986437    0.000152   -1.453423
      6         83           0        1.267710    2.019013    0.680710
      7         50           0       -1.611324    1.562358    1.271510
      8         32           0        0.417825   -0.000083    2.518600
      9         50           0       -1.611135   -1.562728    1.271210
 ---------------------------------------------------------------------

 SCF Done:  E(RPBE1PBE) =  -7517.82322100     A.U. after    1 cycles

 The electronic state is 1-A.
 Alpha  occ. eigenvalues -- -399.10372-399.10372-399.08412 -49.91974 -49.91972
 Alpha  occ. eigenvalues --  -49.90066 -44.40052 -44.40051 -44.40016 -44.40016
 Alpha  occ. eigenvalues --  -44.40007 -44.40007 -44.38136 -44.38116 -44.38088
 Alpha  occ. eigenvalues --   -6.28503  -6.28501  -6.26599  -6.02171  -6.01670
 Alpha  occ. eigenvalues --   -6.01509  -6.01509  -5.13482  -5.13482  -4.43937
 Alpha  occ. eigenvalues --   -4.43936  -4.43846  -4.43846  -4.43790  -4.43790
 Alpha  occ. eigenvalues --   -4.42044  -4.41962  -4.41868  -3.74448  -3.74304
 Alpha  occ. eigenvalues --   -3.74190  -3.73902  -3.73854  -3.73836  -3.73836
 Alpha  occ. eigenvalues --   -3.73682  -3.73632  -3.73631  -3.73485  -3.73485
 Alpha  occ. eigenvalues --   -3.46717  -3.46714  -3.46649  -3.46647  -3.46449
 Alpha  occ. eigenvalues --   -3.46441  -1.23423  -1.23392  -1.23387  -1.23355
 Alpha  occ. eigenvalues --   -1.23327  -1.23285  -1.23282  -1.23275  -1.23238
 Alpha  occ. eigenvalues --   -1.23226  -1.21508  -1.21493  -1.21451  -1.21355
 Alpha  occ. eigenvalues --   -1.21309  -1.08599  -1.08172  -1.08134  -1.08125
 Alpha  occ. eigenvalues --   -1.07912  -1.07672  -1.07578  -1.07571  -1.07509
 Alpha  occ. eigenvalues --   -1.07472  -1.07454  -1.07355  -1.07354  -1.07322
 Alpha  occ. eigenvalues --   -1.07247  -1.07168  -1.07167  -1.07080  -1.07075
 Alpha  occ. eigenvalues --   -1.07030  -1.03048  -1.02999  -1.02949  -1.02911
 Alpha  occ. eigenvalues --   -1.02911  -1.02841  -1.02751  -1.02638  -1.02624
 Alpha  occ. eigenvalues --   -1.02450  -0.67809  -0.62378  -0.61188  -0.58575
 Alpha  occ. eigenvalues --   -0.49166  -0.46550  -0.45935  -0.41889  -0.41822
 Alpha  occ. eigenvalues --   -0.29614  -0.28065  -0.26254  -0.25916  -0.25666
 Alpha  occ. eigenvalues --   -0.25124  -0.23494  -0.23391  -0.22323  -0.21220
 Alpha  occ. eigenvalues --   -0.20480
 Alpha virt. eigenvalues --   -0.08472  -0.07375  -0.06019  -0.05583  -0.05485
 Alpha virt. eigenvalues --   -0.04391  -0.04293  -0.04230  -0.03988  -0.02951
 Alpha virt. eigenvalues --   -0.02854  -0.02628  -0.01763   0.04477   0.05655

 Mulliken charges:
               1
     1  Bi   0.010920
     2  Ge  -0.046138
     3  Bi   0.052780
     4  Ge  -0.046131
     5  Bi   0.030089
     6  Bi   0.052762
     7  Sn   0.064586
     8  Ge  -0.183439
     9  Sn   0.064572
 Sum of Mulliken charges =   0.00000

 Dipole moment (field-independent basis, Debye):
    X=              0.3915    Y=              0.0000    Z=             -0.7298  Tot=              0.8282
 Quadrupole moment (field-independent basis, Debye-Ang):
   XX=           -211.1530   YY=           -219.3532   ZZ=           -223.1147
   XY=             -0.0003   XZ=             -0.7915   YZ=             -0.0002

  Exact polarizability: 388.171  -0.001 376.556  -6.030  -0.001 366.723
 Approx polarizability:1198.637  -0.0121147.820   9.764  -0.0071161.502

                      1                      2                      3
                      A                      A                      A
 Frequencies --     25.5840                52.9876                65.9931
 Red. masses --    139.9898               141.8257               132.6180
 Frc consts  --      0.0540                 0.2346                 0.3403
 IR Inten    --      0.0182                 0.0329                 0.1496

                      4                      5                      6
                      A                      A                      A
 Frequencies --     79.3261                90.6229                93.7424
 Red. masses --    157.1861               152.1557               131.9974
 Frc consts  --      0.5828                 0.7362                 0.6834
 IR Inten    --      0.0770                 0.0632                 0.0862

                      7                      8                      9
                      A                      A                      A
 Frequencies --    108.9323               111.6415               112.4731
 Red. masses --    152.6568               161.1093               100.3531
 Frc consts  --      1.0673                 1.1831                 0.7480
 IR Inten    --      0.0000                 0.0712                 0.1912

                     10                     11                     12
                      A                      A                      A
 Frequencies --    116.9444               119.1239               122.1200
 Red. masses --    123.4421               114.4263               111.6969
 Frc consts  --      0.9947                 0.9567                 0.9814
 IR Inten    --      0.3972                 0.1179                 0.0167

                     13                     14                     15
                      A                      A                      A
 Frequencies --    135.8014               139.0013               148.5832
 Red. masses --    115.7515               104.1707                99.7546
 Frc consts  --      1.2577                 1.1859                 1.2975
 IR Inten    --      0.5828                 0.0682                 0.3291

                     16                     17                     18
                      A                      A                      A
 Frequencies --    155.9953               160.6138               166.5866
 Red. masses --     81.8793                90.3715                87.5832
 Frc consts  --      1.1739                 1.3736                 1.4320
 IR Inten    --      0.0008                 0.0346                 0.7428

                     19                     20                     21
                      A                      A                      A
 Frequencies --    172.4570               180.8015               188.3400
 Red. masses --     85.2181                84.9985                89.5465
 Frc consts  --      1.4933                 1.6371                 1.8715
 IR Inten    --      0.5866                 0.3860                 0.2208

 - Thermochemistry -
 -------------------
 Temperature   298.150 Kelvin.  Pressure   1.00000 Atm.
 Atom     1 has atomic number 83 and mass 208.98040

 Molecular mass:  1293.48874 amu.
 Principal axes and moments of inertia in atomic units:
                           1         2         3
     Eigenvalues --  ******************************
           X            0.99989   0.00000  -0.01493
           Y            0.00000   1.00000   0.00000
           Z            0.01493   0.00000   0.99989
 This molecule is an asymmetric top.
 Rotational symmetry number  1.
 Warning -- assumption of classical behavior for rotation
           may cause significant error
 Rotational temperatures (Kelvin)      0.00502     0.00433     0.00396
 Rotational constants (GHZ):           0.10457     0.09019     0.08261
 Zero-point vibrational energy      15238.5 (Joules/Mol)
                                    3.64208 (Kcal/Mol)
 Warning -- explicit consideration of  21 degrees of freedom as
           vibrations may cause significant error
 Vibrational temperatures:     36.81    76.24    94.95   114.13   130.39
          (Kelvin)            134.87   156.73   160.63   161.82   168.26
                              171.39   175.70   195.39   199.99   213.78
                              224.44   231.09   239.68   248.13   260.13
                              270.98

 Zero-point correction=                           0.005804 (Hartree/Particle)
 Thermal correction to Energy=                    0.023290
 Thermal correction to Enthalpy=                  0.024234
 Thermal correction to Gibbs Free Energy=        -0.048417
 Sum of electronic and zero-point Energies=          -7517.817417
 Sum of electronic and thermal Energies=             -7517.799931
 Sum of electronic and thermal Enthalpies=           -7517.798987
 Sum of electronic and thermal Free Energies=        -7517.871638

                     E (Thermal)             CV                S
                      KCal/Mol        Cal/Mol-Kelvin    Cal/Mol-Kelvin
 Total                   14.615             46.391            152.908
 Electronic               0.000              0.000              0.000
 Translational            0.889              2.981             47.349
 Rotational               0.889              2.981             37.265
 Vibrational             12.837             40.429             68.294
 Vibration     1          0.593              1.985              6.145
 Vibration     2          0.596              1.976              4.703
 Vibration     3          0.597              1.970              4.269
 Vibration     4          0.600              1.963              3.907
 Vibration     5          0.602              1.956              3.647
 Vibration     6          0.603              1.954              3.580
 Vibration     7          0.606              1.942              3.288
 Vibration     8          0.607              1.940              3.240
 Vibration     9          0.607              1.939              3.226
 Vibration    10          0.608              1.935              3.150
 Vibration    11          0.609              1.933              3.115
 Vibration    12          0.610              1.931              3.067
 Vibration    13          0.614              1.918              2.862
 Vibration    14          0.615              1.914              2.818
 Vibration    15          0.618              1.904              2.690
 Vibration    16          0.620              1.896              2.598
 Vibration    17          0.622              1.891              2.543
 Vibration    18          0.624              1.884              2.474
 Vibration    19          0.626              1.876              2.409
 Vibration    20          0.630              1.866              2.320
 Vibration    21          0.633              1.856              2.244

 Normal termination of Gaussian 09 at Thu Mar  8 09:02:46 2018.
