 Gaussian 09, Revision D.01,
 Gaussian 09:  ES64L-G09RevD.01 24-Apr-2013

 ----------------------------------------------------------------------
 #p PBE1PBE/Def2TZVP scf=(maxcycle=768) opt=(cartesian,maxcycle=512) fr
 eq
 ----------------------------------------------------------------------

 ---------------------
 01Final_coords.xyz_17
 ---------------------
 Symbolic Z-matrix:
 Charge =  0 Multiplicity = 1

 SCF Done:  E(RPBE1PBE) =  -7517.81668202     A.U. after   17 cycles
 SCF Done:  E(RPBE1PBE) =  -7517.82296028     A.U. after   12 cycles
 SCF Done:  E(RPBE1PBE) =  -7517.82467138     A.U. after   12 cycles
 SCF Done:  E(RPBE1PBE) =  -7517.82489783     A.U. after   11 cycles
 SCF Done:  E(RPBE1PBE) =  -7517.82507209     A.U. after   11 cycles
 SCF Done:  E(RPBE1PBE) =  -7517.82512574     A.U. after   11 cycles
 SCF Done:  E(RPBE1PBE) =  -7517.82513268     A.U. after   10 cycles
 Optimization completed.
    -- Stationary point found.
 Normal termination of Gaussian 09 at Tue Mar  6 13:24:26 2018.

 ----------------------------------------------------------------------
 #P Geom=AllCheck Guess=TCheck SCRF=Check GenChk RPBE1PBE/def2TZVP Freq
 ----------------------------------------------------------------------

 Structure from the checkpoint file:  "Isomer_17.chk"
 ---------------------
 01Final_coords.xyz_17
 ---------------------
 Charge =  0 Multiplicity = 1

                         Standard orientation:
 ---------------------------------------------------------------------
 Center     Atomic      Atomic             Coordinates (Angstroms)
 Number     Number       Type             X           Y           Z
 ---------------------------------------------------------------------
      1         83           0        0.307173   -1.765390   -1.523203
      2         83           0       -1.871021    0.318629    1.525520
      3         50           0        2.551640   -0.461517   -0.000011
      4         32           0       -0.692634    2.400179   -0.000219
      5         83           0        0.307136   -1.765163    1.523485
      6         32           0        0.812425    1.015351    2.077190
      7         32           0        0.812497    1.015125   -2.077298
      8         83           0       -1.870982    0.318386   -1.525617
      9         50           0        2.043668    2.429170   -0.000086
 ---------------------------------------------------------------------

 SCF Done:  E(RPBE1PBE) =  -7517.82513268     A.U. after    1 cycles

 The electronic state is 1-A.
 Alpha  occ. eigenvalues -- -399.09558-399.09501-399.09501 -49.91192 -49.91123
 Alpha  occ. eigenvalues --  -49.91122 -44.39274 -44.39253 -44.39203 -44.39203
 Alpha  occ. eigenvalues --  -44.39199 -44.39188 -44.39188 -44.39130 -44.39129
 Alpha  occ. eigenvalues --   -6.27738  -6.27657  -6.27656  -6.01992  -6.01991
 Alpha  occ. eigenvalues --   -6.01812  -6.01812  -5.13449  -5.12676  -4.43195
 Alpha  occ. eigenvalues --   -4.43143  -4.43106  -4.43105  -4.43070  -4.43070
 Alpha  occ. eigenvalues --   -4.42960  -4.42873  -4.42873  -3.74305  -3.74297
 Alpha  occ. eigenvalues --   -3.74119  -3.74111  -3.74085  -3.74083  -3.74029
 Alpha  occ. eigenvalues --   -3.74020  -3.73900  -3.73897  -3.73846  -3.73837
 Alpha  occ. eigenvalues --   -3.46683  -3.46624  -3.46403  -3.45893  -3.45866
 Alpha  occ. eigenvalues --   -3.45642  -1.22732  -1.22701  -1.22628  -1.22625
 Alpha  occ. eigenvalues --   -1.22603  -1.22575  -1.22541  -1.22495  -1.22486
 Alpha  occ. eigenvalues --   -1.22406  -1.22397  -1.22381  -1.22367  -1.22348
 Alpha  occ. eigenvalues --   -1.22344  -1.08666  -1.08304  -1.08249  -1.08150
 Alpha  occ. eigenvalues --   -1.08113  -1.07982  -1.07939  -1.07889  -1.07747
 Alpha  occ. eigenvalues --   -1.07745  -1.07662  -1.07606  -1.07490  -1.07453
 Alpha  occ. eigenvalues --   -1.07392  -1.07324  -1.07258  -1.07238  -1.07184
 Alpha  occ. eigenvalues --   -1.06959  -1.02976  -1.02928  -1.02887  -1.02773
 Alpha  occ. eigenvalues --   -1.02677  -1.02174  -1.02122  -1.02033  -1.01875
 Alpha  occ. eigenvalues --   -1.01814  -0.68287  -0.61930  -0.61426  -0.55846
 Alpha  occ. eigenvalues --   -0.53894  -0.46377  -0.45560  -0.42147  -0.39944
 Alpha  occ. eigenvalues --   -0.29871  -0.27440  -0.26731  -0.26348  -0.26154
 Alpha  occ. eigenvalues --   -0.24082  -0.23742  -0.23645  -0.22032  -0.20772
 Alpha  occ. eigenvalues --   -0.20521
 Alpha virt. eigenvalues --   -0.07376  -0.07242  -0.06434  -0.05650  -0.04930
 Alpha virt. eigenvalues --   -0.04858  -0.04392  -0.04294  -0.04112  -0.03836
 Alpha virt. eigenvalues --   -0.03685  -0.01893  -0.00249   0.04842   0.05193

 Mulliken charges:
               1
     1  Bi   0.012432
     2  Bi   0.025823
     3  Sn   0.069301
     4  Ge  -0.017923
     5  Bi   0.012425
     6  Ge  -0.049883
     7  Ge  -0.049898
     8  Bi   0.025831
     9  Sn  -0.028107
 Sum of Mulliken charges =   0.00000

 Dipole moment (field-independent basis, Debye):
    X=             -1.1693    Y=             -1.7220    Z=              0.0001  Tot=              2.0814
 Quadrupole moment (field-independent basis, Debye-Ang):
   XX=           -214.6874   YY=           -218.7297   ZZ=           -220.2602
   XY=              0.9983   XZ=              0.0000   YZ=              0.0000

  Exact polarizability: 390.437   7.369 380.958   0.000  -0.001 362.287
 Approx polarizability:1216.750  38.8611190.514   0.003   0.0011128.843

                      1                      2                      3
                      A                      A                      A
 Frequencies --     46.6561                68.3092                74.3949
 Red. masses --    185.3862               121.2271               130.9444
 Frc consts  --      0.2378                 0.3333                 0.4270
 IR Inten    --      0.0021                 0.0018                 0.0463

                      4                      5                      6
                      A                      A                      A
 Frequencies --     82.1300                98.2969                98.8074
 Red. masses --    163.5752               139.7484               154.6683
 Frc consts  --      0.6501                 0.7956                 0.8897
 IR Inten    --      0.0086                 0.0216                 0.0892

                      7                      8                      9
                      A                      A                      A
 Frequencies --    100.3905               105.5700               106.8574
 Red. masses --    123.4689               145.1847               127.1707
 Frc consts  --      0.7331                 0.9533                 0.8556
 IR Inten    --      0.3780                 0.0459                 0.0009

                     10                     11                     12
                      A                      A                      A
 Frequencies --    111.6989               114.4138               116.2406
 Red. masses --    127.6582               109.1529               140.6258
 Frc consts  --      0.9384                 0.8419                 1.1195
 IR Inten    --      0.2512                 0.0065                 0.3592

                     13                     14                     15
                      A                      A                      A
 Frequencies --    131.4180               146.3936               146.5754
 Red. masses --     97.1080               121.3037                90.2843
 Frc consts  --      0.9881                 1.5317                 1.1428
 IR Inten    --      0.5426                 0.1863                 0.0135

                     16                     17                     18
                      A                      A                      A
 Frequencies --    153.0056               153.8555               164.4847
 Red. masses --     84.9836                83.5654                87.7675
 Frc consts  --      1.1722                 1.1655                 1.3991
 IR Inten    --      0.1548                 0.0481                 0.0601

                     19                     20                     21
                      A                      A                      A
 Frequencies --    178.1292               180.6657               200.8868
 Red. masses --     84.8422                86.4857                86.7411
 Frc consts  --      1.5861                 1.6632                 2.0624
 IR Inten    --      0.3808                 0.0813                 1.6437

 - Thermochemistry -
 -------------------
 Temperature   298.150 Kelvin.  Pressure   1.00000 Atm.
 Atom     1 has atomic number 83 and mass 208.98040

 Molecular mass:  1293.48874 amu.
 Principal axes and moments of inertia in atomic units:
                           1         2         3
     Eigenvalues --  ******************************
           X            0.99243   0.12285  -0.00001
           Y           -0.12285   0.99243  -0.00005
           Z            0.00001   0.00005   1.00000
 This molecule is an asymmetric top.
 Rotational symmetry number  1.
 Warning -- assumption of classical behavior for rotation
           may cause significant error
 Rotational temperatures (Kelvin)      0.00465     0.00443     0.00438
 Rotational constants (GHZ):           0.09683     0.09224     0.09128
 Zero-point vibrational energy      15426.9 (Joules/Mol)
                                    3.68712 (Kcal/Mol)
 Warning -- explicit consideration of  21 degrees of freedom as
           vibrations may cause significant error
 Vibrational temperatures:     67.13    98.28   107.04   118.17   141.43
          (Kelvin)            142.16   144.44   151.89   153.74   160.71
                              164.62   167.24   189.08   210.63   210.89
                              220.14   221.36   236.66   256.29   259.94
                              289.03

 Zero-point correction=                           0.005876 (Hartree/Particle)
 Thermal correction to Energy=                    0.023295
 Thermal correction to Enthalpy=                  0.024239
 Thermal correction to Gibbs Free Energy=        -0.047595
 Sum of electronic and zero-point Energies=          -7517.819257
 Sum of electronic and thermal Energies=             -7517.801838
 Sum of electronic and thermal Enthalpies=           -7517.800894
 Sum of electronic and thermal Free Energies=        -7517.872728

                     E (Thermal)             CV                S
                      KCal/Mol        Cal/Mol-Kelvin    Cal/Mol-Kelvin
 Total                   14.618             46.381            151.188
 Electronic               0.000              0.000              0.000
 Translational            0.889              2.981             47.349
 Rotational               0.889              2.981             37.220
 Vibrational             12.840             40.419             66.619
 Vibration     1          0.595              1.979              4.954
 Vibration     2          0.598              1.969              4.202
 Vibration     3          0.599              1.966              4.034
 Vibration     4          0.600              1.961              3.839
 Vibration     5          0.604              1.950              3.488
 Vibration     6          0.604              1.950              3.478
 Vibration     7          0.604              1.949              3.447
 Vibration     8          0.605              1.945              3.349
 Vibration     9          0.606              1.944              3.325
 Vibration    10          0.607              1.940              3.239
 Vibration    11          0.607              1.937              3.193
 Vibration    12          0.608              1.936              3.162
 Vibration    13          0.612              1.922              2.925
 Vibration    14          0.617              1.907              2.719
 Vibration    15          0.617              1.906              2.716
 Vibration    16          0.619              1.899              2.635
 Vibration    17          0.619              1.898              2.624
 Vibration    18          0.623              1.886              2.498
 Vibration    19          0.629              1.869              2.348
 Vibration    20          0.630              1.866              2.322
 Vibration    21          0.638              1.839              2.125

 Normal termination of Gaussian 09 at Tue Mar  6 14:21:06 2018.
