 Gaussian 09, Revision D.01,
 Gaussian 09:  ES64L-G09RevD.01 24-Apr-2013

 ----------------------------------------------------------------------
 #p PBE1PBE/Def2TZVP scf=(maxcycle=768) opt=(cartesian,maxcycle=512) fr
 eq
 ----------------------------------------------------------------------

 ---------------------
 01Final_coords.xyz_43
 ---------------------
 Symbolic Z-matrix:
 Charge =  0 Multiplicity = 1

 SCF Done:  E(RPBE1PBE) =  -7517.80839435     A.U. after   16 cycles
 SCF Done:  E(RPBE1PBE) =  -7517.81394139     A.U. after   12 cycles
 SCF Done:  E(RPBE1PBE) =  -7517.81520762     A.U. after   12 cycles
 SCF Done:  E(RPBE1PBE) =  -7517.81534890     A.U. after   11 cycles
 SCF Done:  E(RPBE1PBE) =  -7517.81544030     A.U. after   11 cycles
 SCF Done:  E(RPBE1PBE) =  -7517.81546716     A.U. after   11 cycles
 SCF Done:  E(RPBE1PBE) =  -7517.81547622     A.U. after   10 cycles
 SCF Done:  E(RPBE1PBE) =  -7517.81548757     A.U. after   11 cycles
 SCF Done:  E(RPBE1PBE) =  -7517.81549577     A.U. after   11 cycles
 SCF Done:  E(RPBE1PBE) =  -7517.81550326     A.U. after   10 cycles
 SCF Done:  E(RPBE1PBE) =  -7517.81724850     A.U. after   10 cycles
 SCF Done:  E(RPBE1PBE) =  -7517.81725239     A.U. after    9 cycles
 SCF Done:  E(RPBE1PBE) =  -7517.81725348     A.U. after   11 cycles
 SCF Done:  E(RPBE1PBE) =  -7517.81725246     A.U. after   11 cycles
 SCF Done:  E(RPBE1PBE) =  -7517.81725418     A.U. after    5 cycles
 SCF Done:  E(RPBE1PBE) =  -7517.81725498     A.U. after    9 cycles
 SCF Done:  E(RPBE1PBE) =  -7517.81725513     A.U. after    9 cycles
 SCF Done:  E(RPBE1PBE) =  -7517.81725509     A.U. after   10 cycles
 SCF Done:  E(RPBE1PBE) =  -7517.81725536     A.U. after    8 cycles
 Optimization completed.
    -- Stationary point found.
 Normal termination of Gaussian 09 at Thu Mar  8 21:13:55 2018.

 ----------------------------------------------------------------------
 #P Geom=AllCheck Guess=TCheck SCRF=Check GenChk RPBE1PBE/def2TZVP Freq
 ----------------------------------------------------------------------

 Structure from the checkpoint file:  "Isomer_43.chk"
 ---------------------
 01Final_coords.xyz_43
 ---------------------
 Charge =  0 Multiplicity = 1

                         Standard orientation:
 ---------------------------------------------------------------------
 Center     Atomic      Atomic             Coordinates (Angstroms)
 Number     Number       Type             X           Y           Z
 ---------------------------------------------------------------------
      1         50           0       -0.006745    2.415001   -1.203293
      2         83           0       -1.478383   -1.919574   -0.188660
      3         83           0        2.188662    0.954439    0.395107
      4         32           0       -1.323664    0.108826   -2.216012
      5         32           0       -0.005226    2.086040    1.729698
      6         83           0        1.489681   -1.911960   -0.186869
      7         50           0        0.001664   -0.681400    2.241290
      8         83           0       -2.193736    0.942196    0.397157
      9         32           0        1.320686    0.115028   -2.216465
 ---------------------------------------------------------------------

 SCF Done:  E(RPBE1PBE) =  -7517.81725536     A.U. after    1 cycles

 The electronic state is 1-A.
 Alpha  occ. eigenvalues -- -399.09240-399.08318-399.08314 -49.90908 -49.89971
 Alpha  occ. eigenvalues --  -49.89966 -44.38979 -44.38952 -44.38927 -44.38056
 Alpha  occ. eigenvalues --  -44.38052 -44.38032 -44.38028 -44.37967 -44.37963
 Alpha  occ. eigenvalues --   -6.27448  -6.26508  -6.26504  -6.02356  -6.02356
 Alpha  occ. eigenvalues --   -6.02082  -6.02080  -5.14127  -5.13334  -4.42900
 Alpha  occ. eigenvalues --   -4.42799  -4.42721  -4.42000  -4.41996  -4.41915
 Alpha  occ. eigenvalues --   -4.41910  -4.41694  -4.41686  -3.74698  -3.74698
 Alpha  occ. eigenvalues --   -3.74473  -3.74473  -3.74387  -3.74373  -3.74340
 Alpha  occ. eigenvalues --   -3.74339  -3.74267  -3.74255  -3.74024  -3.74020
 Alpha  occ. eigenvalues --   -3.47375  -3.47262  -3.47095  -3.46587  -3.46454
 Alpha  occ. eigenvalues --   -3.46331  -1.22370  -1.22353  -1.22297  -1.22211
 Alpha  occ. eigenvalues --   -1.22171  -1.21527  -1.21513  -1.21482  -1.21477
 Alpha  occ. eigenvalues --   -1.21474  -1.21289  -1.21274  -1.21177  -1.21132
 Alpha  occ. eigenvalues --   -1.21002  -1.09013  -1.08795  -1.08601  -1.08417
 Alpha  occ. eigenvalues --   -1.08416  -1.08277  -1.08254  -1.08088  -1.08069
 Alpha  occ. eigenvalues --   -1.08052  -1.08001  -1.07951  -1.07911  -1.07770
 Alpha  occ. eigenvalues --   -1.07722  -1.07622  -1.07563  -1.07544  -1.07437
 Alpha  occ. eigenvalues --   -1.07296  -1.03563  -1.03556  -1.03409  -1.03358
 Alpha  occ. eigenvalues --   -1.03309  -1.02798  -1.02789  -1.02727  -1.02619
 Alpha  occ. eigenvalues --   -1.02532  -0.68235  -0.63361  -0.61154  -0.54788
 Alpha  occ. eigenvalues --   -0.53636  -0.48125  -0.43455  -0.42136  -0.40344
 Alpha  occ. eigenvalues --   -0.29759  -0.28523  -0.27706  -0.25918  -0.25369
 Alpha  occ. eigenvalues --   -0.24364  -0.23595  -0.23059  -0.22357  -0.21260
 Alpha  occ. eigenvalues --   -0.19680
 Alpha virt. eigenvalues --   -0.07549  -0.07493  -0.07015  -0.06608  -0.05553
 Alpha virt. eigenvalues --   -0.05237  -0.04932  -0.04516  -0.04325  -0.03012
 Alpha virt. eigenvalues --   -0.02529  -0.01790   0.00139   0.04722   0.05687

 Mulliken charges:
               1
     1  Sn   0.087657
     2  Bi   0.030646
     3  Bi   0.128258
     4  Ge  -0.124130
     5  Ge  -0.214031
     6  Bi   0.029849
     7  Sn   0.057099
     8  Bi   0.128214
     9  Ge  -0.123561
 Sum of Mulliken charges =   0.00000

 Dipole moment (field-independent basis, Debye):
    X=              0.0046    Y=             -1.1243    Z=              1.3821  Tot=              1.7817
 Quadrupole moment (field-independent basis, Debye-Ang):
   XX=           -214.1625   YY=           -214.4918   ZZ=           -226.2301
   XY=             -0.0023   XZ=             -0.0001   YZ=              0.5082

  Exact polarizability: 368.688  -0.069 386.328   0.029  -7.401 374.703
 Approx polarizability:1119.873  -0.3611205.198   0.065  18.4841224.383

                      1                      2                      3
                      A                      A                      A
 Frequencies --     25.1145                66.4019                72.9551
 Red. masses --    148.5658               128.7052               144.2647
 Frc consts  --      0.0552                 0.3344                 0.4524
 IR Inten    --      0.0238                 0.1341                 0.0349

                      4                      5                      6
                      A                      A                      A
 Frequencies --     81.0248                86.5773                88.1165
 Red. masses --    140.8056               166.2185               119.2974
 Frc consts  --      0.5446                 0.7341                 0.5458
 IR Inten    --      0.1649                 0.0031                 0.1394

                      7                      8                      9
                      A                      A                      A
 Frequencies --     97.2212               108.4604               110.1087
 Red. masses --    144.6126               149.6651               118.6726
 Frc consts  --      0.8053                 1.0373                 0.8477
 IR Inten    --      0.1201                 0.1743                 0.0396

                     10                     11                     12
                      A                      A                      A
 Frequencies --    115.6378               118.3356               120.9945
 Red. masses --    129.0403               130.5343               117.7722
 Frc consts  --      1.0167                 1.0770                 1.0158
 IR Inten    --      0.0750                 0.0002                 0.3107

                     13                     14                     15
                      A                      A                      A
 Frequencies --    136.3633               144.1519               148.8394
 Red. masses --    157.5224                92.8721                94.6268
 Frc consts  --      1.7258                 1.1370                 1.2351
 IR Inten    --      0.0214                 1.2841                 0.3970

                     16                     17                     18
                      A                      A                      A
 Frequencies --    151.1450               163.7055               168.8209
 Red. masses --     90.6485                89.6562                86.2795
 Frc consts  --      1.2201                 1.4157                 1.4488
 IR Inten    --      1.0736                 0.2365                 0.1311

                     19                     20                     21
                      A                      A                      A
 Frequencies --    173.8605               180.4503               187.8234
 Red. masses --     81.1453                83.7532                78.4214
 Frc consts  --      1.4452                 1.6068                 1.6300
 IR Inten    --      0.0696                 0.4530                 1.4182

 - Thermochemistry -
 -------------------
 Temperature   298.150 Kelvin.  Pressure   1.00000 Atm.
 Atom     1 has atomic number 50 and mass 117.90180

 Molecular mass:  1293.48874 amu.
 Principal axes and moments of inertia in atomic units:
                           1         2         3
     Eigenvalues --  ******************************
           X            1.00000  -0.00076   0.00006
           Y            0.00076   0.99992  -0.01261
           Z           -0.00005   0.01261   0.99992
 This molecule is an asymmetric top.
 Rotational symmetry number  1.
 Warning -- assumption of classical behavior for rotation
           may cause significant error
 Rotational temperatures (Kelvin)      0.00509     0.00487     0.00394
 Rotational constants (GHZ):           0.10605     0.10156     0.08203
 Zero-point vibrational energy      15229.1 (Joules/Mol)
                                    3.63985 (Kcal/Mol)
 Warning -- explicit consideration of  21 degrees of freedom as
           vibrations may cause significant error
 Vibrational temperatures:     36.13    95.54   104.97   116.58   124.57
          (Kelvin)            126.78   139.88   156.05   158.42   166.38
                              170.26   174.08   196.20   207.40   214.15
                              217.46   235.54   242.90   250.15   259.63
                              270.24

 Zero-point correction=                           0.005800 (Hartree/Particle)
 Thermal correction to Energy=                    0.023288
 Thermal correction to Enthalpy=                  0.024232
 Thermal correction to Gibbs Free Energy=        -0.048287
 Sum of electronic and zero-point Energies=          -7517.811455
 Sum of electronic and thermal Energies=             -7517.793968
 Sum of electronic and thermal Enthalpies=           -7517.793023
 Sum of electronic and thermal Free Energies=        -7517.865542

                     E (Thermal)             CV                S
                      KCal/Mol        Cal/Mol-Kelvin    Cal/Mol-Kelvin
 Total                   14.613             46.395            152.629
 Electronic               0.000              0.000              0.000
 Translational            0.889              2.981             47.349
 Rotational               0.889              2.981             37.140
 Vibrational             12.836             40.434             68.140
 Vibration     1          0.593              1.985              6.182
 Vibration     2          0.598              1.970              4.257
 Vibration     3          0.599              1.967              4.072
 Vibration     4          0.600              1.962              3.866
 Vibration     5          0.601              1.959              3.736
 Vibration     6          0.601              1.958              3.701
 Vibration     7          0.603              1.951              3.509
 Vibration     8          0.606              1.942              3.296
 Vibration     9          0.606              1.941              3.267
 Vibration    10          0.608              1.936              3.172
 Vibration    11          0.608              1.934              3.127
 Vibration    12          0.609              1.932              3.084
 Vibration    13          0.614              1.917              2.854
 Vibration    14          0.616              1.909              2.748
 Vibration    15          0.618              1.904              2.687
 Vibration    16          0.619              1.901              2.658
 Vibration    17          0.623              1.887              2.507
 Vibration    18          0.625              1.881              2.449
 Vibration    19          0.627              1.875              2.393
 Vibration    20          0.629              1.866              2.324
 Vibration    21          0.633              1.857              2.249

 Normal termination of Gaussian 09 at Thu Mar  8 22:27:41 2018.
 Optimization completed.
    -- Stationary point found.
 Normal termination of Gaussian 09 at Thu Mar  8 15:28:25 2018.
