 Gaussian 09, Revision D.01,
 Gaussian 09:  ES64L-G09RevD.01 24-Apr-2013

 ----------------------------------------------------------------------
 #p PBE1PBE/Def2TZVP scf=(maxcycle=768) opt=(cartesian,maxcycle=512) fr
 eq
 ----------------------------------------------------------------------

 ---------------------
 01Final_coords.xyz_52
 ---------------------
 Symbolic Z-matrix:
 Charge =  0 Multiplicity = 1

 SCF Done:  E(RPBE1PBE) =  -7517.80349776     A.U. after   17 cycles
 SCF Done:  E(RPBE1PBE) =  -7517.80894251     A.U. after   13 cycles
 SCF Done:  E(RPBE1PBE) =  -7517.81015648     A.U. after   12 cycles
 SCF Done:  E(RPBE1PBE) =  -7517.81030724     A.U. after   12 cycles
 SCF Done:  E(RPBE1PBE) =  -7517.81042497     A.U. after   11 cycles
 SCF Done:  E(RPBE1PBE) =  -7517.81045221     A.U. after   11 cycles
 SCF Done:  E(RPBE1PBE) =  -7517.81046180     A.U. after    9 cycles
 SCF Done:  E(RPBE1PBE) =  -7517.81046639     A.U. after    9 cycles
 SCF Done:  E(RPBE1PBE) =  -7517.81047274     A.U. after   10 cycles
 SCF Done:  E(RPBE1PBE) =  -7517.81047660     A.U. after    9 cycles
 SCF Done:  E(RPBE1PBE) =  -7517.81047949     A.U. after    9 cycles
 SCF Done:  E(RPBE1PBE) =  -7517.81048106     A.U. after    9 cycles
 SCF Done:  E(RPBE1PBE) =  -7517.81048290     A.U. after   10 cycles
 Optimization completed.
    -- Stationary point found.
 Normal termination of Gaussian 09 at Tue Mar  6 19:02:02 2018.

 ----------------------------------------------------------------------
 #P Geom=AllCheck Guess=TCheck SCRF=Check GenChk RPBE1PBE/def2TZVP Freq
 ----------------------------------------------------------------------

 Structure from the checkpoint file:  "Isomer_52.chk"
 ---------------------
 01Final_coords.xyz_52
 ---------------------
 Charge =  0 Multiplicity = 1

                         Standard orientation:
 ---------------------------------------------------------------------
 Center     Atomic      Atomic             Coordinates (Angstroms)
 Number     Number       Type             X           Y           Z
 ---------------------------------------------------------------------
      1         50           0        2.016356    0.357318   -1.914318
      2         32           0       -0.004473   -1.136106    2.227572
      3         83           0        1.054570   -2.015519   -0.387183
      4         83           0       -2.254168    1.285345   -0.190404
      5         32           0       -0.728784   -0.098217   -2.152643
      6         32           0       -0.452060    1.470128    2.046848
      7         83           0        2.042630    0.582283    1.172779
      8         83           0       -1.839573   -1.649718    0.103902
      9         50           0        0.396507    2.475798   -0.604116
 ---------------------------------------------------------------------

 SCF Done:  E(RPBE1PBE) =  -7517.81048290     A.U. after    2 cycles

 The electronic state is 1-A.
 Alpha  occ. eigenvalues -- -399.09982-399.08703-399.08417 -49.91578 -49.90347
 Alpha  occ. eigenvalues --  -49.90063 -44.39677 -44.39625 -44.39590 -44.38438
 Alpha  occ. eigenvalues --  -44.38413 -44.38332 -44.38138 -44.38127 -44.38069
 Alpha  occ. eigenvalues --   -6.28098  -6.26880  -6.26600  -6.02763  -6.02220
 Alpha  occ. eigenvalues --   -6.02124  -6.01586  -5.13444  -5.13384  -4.43594
 Alpha  occ. eigenvalues --   -4.43446  -4.43317  -4.42381  -4.42309  -4.42060
 Alpha  occ. eigenvalues --   -4.42023  -4.42009  -4.41812  -3.75047  -3.74879
 Alpha  occ. eigenvalues --   -3.74799  -3.74505  -3.74430  -3.74411  -3.74263
 Alpha  occ. eigenvalues --   -3.74157  -3.74138  -3.73933  -3.73661  -3.73590
 Alpha  occ. eigenvalues --   -3.46682  -3.46627  -3.46575  -3.46543  -3.46472
 Alpha  occ. eigenvalues --   -3.46307  -1.23053  -1.23017  -1.22892  -1.22802
 Alpha  occ. eigenvalues --   -1.22770  -1.21908  -1.21902  -1.21712  -1.21651
 Alpha  occ. eigenvalues --   -1.21574  -1.21562  -1.21523  -1.21326  -1.21295
 Alpha  occ. eigenvalues --   -1.21215  -1.09257  -1.08761  -1.08749  -1.08629
 Alpha  occ. eigenvalues --   -1.08499  -1.08435  -1.08120  -1.08051  -1.08011
 Alpha  occ. eigenvalues --   -1.07978  -1.07901  -1.07879  -1.07829  -1.07766
 Alpha  occ. eigenvalues --   -1.07645  -1.07547  -1.07416  -1.07238  -1.07195
 Alpha  occ. eigenvalues --   -1.07119  -1.03171  -1.02960  -1.02907  -1.02833
 Alpha  occ. eigenvalues --   -1.02809  -1.02803  -1.02717  -1.02566  -1.02465
 Alpha  occ. eigenvalues --   -1.02294  -0.68361  -0.62920  -0.61286  -0.56222
 Alpha  occ. eigenvalues --   -0.51687  -0.47805  -0.44566  -0.42031  -0.40255
 Alpha  occ. eigenvalues --   -0.29897  -0.28545  -0.27072  -0.26152  -0.25177
 Alpha  occ. eigenvalues --   -0.24504  -0.23735  -0.23311  -0.22472  -0.20602
 Alpha  occ. eigenvalues --   -0.19678
 Alpha virt. eigenvalues --   -0.07776  -0.07328  -0.07040  -0.06599  -0.05398
 Alpha virt. eigenvalues --   -0.05146  -0.04632  -0.04345  -0.03961  -0.03896
 Alpha virt. eigenvalues --   -0.02864  -0.01728   0.00029   0.04616   0.05106

 Mulliken charges:
               1
     1  Sn  -0.053945
     2  Ge  -0.141598
     3  Bi   0.114530
     4  Bi   0.024701
     5  Ge  -0.079531
     6  Ge  -0.109474
     7  Bi   0.117432
     8  Bi   0.063072
     9  Sn   0.064814
 Sum of Mulliken charges =   0.00000

 Dipole moment (field-independent basis, Debye):
    X=              0.0762    Y=             -0.7326    Z=             -0.7438  Tot=              1.0468
 Quadrupole moment (field-independent basis, Debye-Ang):
   XX=           -210.8869   YY=           -216.9645   ZZ=           -226.0158
   XY=              0.5349   XZ=             -0.9810   YZ=             -0.6610

  Exact polarizability: 387.374   2.818 381.252 -13.643  -5.126 365.188
 Approx polarizability:1216.288   3.0081182.842 -67.079 -11.3221181.752

                      1                      2                      3
                      A                      A                      A
 Frequencies --     28.3545                53.0162                65.9207
 Red. masses --    134.7807               130.4752               125.5524
 Frc consts  --      0.0638                 0.2161                 0.3215
 IR Inten    --      0.1408                 0.1350                 0.1550

                      4                      5                      6
                      A                      A                      A
 Frequencies --     79.5819                89.0516                91.1490
 Red. masses --    173.3748               130.1539               166.2249
 Frc consts  --      0.6469                 0.6081                 0.8137
 IR Inten    --      0.0298                 0.2948                 0.0394

                      7                      8                      9
                      A                      A                      A
 Frequencies --     96.2371               100.8894               114.1268
 Red. masses --    122.3496               125.7382               111.7650
 Frc consts  --      0.6676                 0.7541                 0.8577
 IR Inten    --      0.0216                 0.3293                 0.2256

                     10                     11                     12
                      A                      A                      A
 Frequencies --    117.3084               121.6128               126.8233
 Red. masses --    148.4183               144.2050               106.6839
 Frc consts  --      1.2034                 1.2566                 1.0110
 IR Inten    --      0.2642                 0.0898                 0.0051

                     13                     14                     15
                      A                      A                      A
 Frequencies --    130.2056               140.8912               145.5086
 Red. masses --    118.8583               103.0358                95.2187
 Frc consts  --      1.1872                 1.2051                 1.1878
 IR Inten    --      0.3311                 0.3965                 0.6350

                     16                     17                     18
                      A                      A                      A
 Frequencies --    156.1610               160.4736               162.2284
 Red. masses --     95.9241                93.3645                87.2002
 Frc consts  --      1.3782                 1.4166                 1.3521
 IR Inten    --      0.1581                 0.3830                 0.2828

                     19                     20                     21
                      A                      A                      A
 Frequencies --    170.6420               179.5210               191.2261
 Red. masses --     82.3206                88.0528                80.3451
 Frc consts  --      1.4123                 1.6720                 1.7310
 IR Inten    --      0.2388                 1.0360                 0.6089

 - Thermochemistry -
 -------------------
 Temperature   298.150 Kelvin.  Pressure   1.00000 Atm.
 Atom     1 has atomic number 50 and mass 117.90180

 Molecular mass:  1293.48874 amu.
 Principal axes and moments of inertia in atomic units:
                           1         2         3
     Eigenvalues --  ******************************
           X            0.99971   0.01591  -0.01791
           Y           -0.01614   0.99978  -0.01305
           Z            0.01770   0.01334   0.99975
 This molecule is an asymmetric top.
 Rotational symmetry number  1.
 Warning -- assumption of classical behavior for rotation
           may cause significant error
 Rotational temperatures (Kelvin)      0.00522     0.00462     0.00388
 Rotational constants (GHZ):           0.10871     0.09629     0.08082
 Zero-point vibrational energy      15078.5 (Joules/Mol)
                                    3.60385 (Kcal/Mol)
 Warning -- explicit consideration of  21 degrees of freedom as
           vibrations may cause significant error
 Vibrational temperatures:     40.80    76.28    94.85   114.50   128.13
          (Kelvin)            131.14   138.46   145.16   164.20   168.78
                              174.97   182.47   187.34   202.71   209.35
                              224.68   230.89   233.41   245.52   258.29
                              275.13

 Zero-point correction=                           0.005743 (Hartree/Particle)
 Thermal correction to Energy=                    0.023278
 Thermal correction to Enthalpy=                  0.024222
 Thermal correction to Gibbs Free Energy=        -0.048542
 Sum of electronic and zero-point Energies=          -7517.804740
 Sum of electronic and thermal Energies=             -7517.787205
 Sum of electronic and thermal Enthalpies=           -7517.786261
 Sum of electronic and thermal Free Energies=        -7517.859025

                     E (Thermal)             CV                S
                      KCal/Mol        Cal/Mol-Kelvin    Cal/Mol-Kelvin
 Total                   14.607             46.415            153.146
 Electronic               0.000              0.000              0.000
 Translational            0.889              2.981             47.349
 Rotational               0.889              2.981             37.183
 Vibrational             12.830             40.453             68.614
 Vibration     1          0.593              1.984              5.941
 Vibration     2          0.596              1.976              4.702
 Vibration     3          0.597              1.971              4.272
 Vibration     4          0.600              1.963              3.901
 Vibration     5          0.602              1.957              3.681
 Vibration     6          0.602              1.955              3.635
 Vibration     7          0.603              1.952              3.529
 Vibration     8          0.604              1.948              3.437
 Vibration     9          0.607              1.938              3.197
 Vibration    10          0.608              1.935              3.144
 Vibration    11          0.609              1.931              3.075
 Vibration    12          0.611              1.926              2.994
 Vibration    13          0.612              1.923              2.943
 Vibration    14          0.615              1.912              2.792
 Vibration    15          0.617              1.908              2.730
 Vibration    16          0.620              1.896              2.596
 Vibration    17          0.622              1.891              2.544
 Vibration    18          0.622              1.889              2.524
 Vibration    19          0.626              1.879              2.428
 Vibration    20          0.629              1.867              2.333
 Vibration    21          0.634              1.852              2.216

 Normal termination of Gaussian 09 at Tue Mar  6 20:17:25 2018.
