 Gaussian 09, Revision D.01,
 Gaussian 09:  ES64L-G09RevD.01 24-Apr-2013

 ----------------------------------------------------------------------
 #p PBE1PBE/Def2TZVP scf=(maxcycle=768) opt=(cartesian,maxcycle=512) fr
 eq
 ----------------------------------------------------------------------

 ---------------------
 01Final_coords.xyz_42
 ---------------------
 Symbolic Z-matrix:
 Charge =  0 Multiplicity = 1

 SCF Done:  E(RPBE1PBE) =  -7517.81091533     A.U. after   17 cycles
 SCF Done:  E(RPBE1PBE) =  -7517.81704939     A.U. after   13 cycles
 SCF Done:  E(RPBE1PBE) =  -7517.81856566     A.U. after   12 cycles
 SCF Done:  E(RPBE1PBE) =  -7517.81866955     A.U. after   11 cycles
 SCF Done:  E(RPBE1PBE) =  -7517.81870546     A.U. after   12 cycles
 SCF Done:  E(RPBE1PBE) =  -7517.81875227     A.U. after   11 cycles
 SCF Done:  E(RPBE1PBE) =  -7517.81876683     A.U. after   10 cycles
 SCF Done:  E(RPBE1PBE) =  -7517.81877327     A.U. after    9 cycles
 SCF Done:  E(RPBE1PBE) =  -7517.81877818     A.U. after    9 cycles
 SCF Done:  E(RPBE1PBE) =  -7517.81878054     A.U. after    8 cycles
 Optimization completed.
    -- Stationary point found.
 Normal termination of Gaussian 09 at Tue Mar  6 17:35:27 2018.

 ----------------------------------------------------------------------
 #P Geom=AllCheck Guess=TCheck SCRF=Check GenChk RPBE1PBE/def2TZVP Freq
 ----------------------------------------------------------------------

 Structure from the checkpoint file:  "Isomer_42.chk"
 ---------------------
 01Final_coords.xyz_42
 ---------------------
 Charge =  0 Multiplicity = 1

                         Standard orientation:
 ---------------------------------------------------------------------
 Center     Atomic      Atomic             Coordinates (Angstroms)
 Number     Number       Type             X           Y           Z
 ---------------------------------------------------------------------
      1         50           0       -2.133478    1.754461   -0.161480
      2         83           0        2.120996    0.740464   -0.833456
      3         50           0       -1.447751    0.104665    2.226817
      4         83           0        0.732465   -1.964563   -0.829740
      5         32           0        0.365643    2.099294    1.304842
      6         32           0       -0.525881    0.244745   -2.335921
      7         83           0       -2.125431   -1.224570   -0.467713
      8         32           0        0.187437    2.606427   -1.340176
      9         83           0        1.418850   -0.579899    1.800947
 ---------------------------------------------------------------------

 SCF Done:  E(RPBE1PBE) =  -7517.81878054     A.U. after    1 cycles

 The electronic state is 1-A.
 Alpha  occ. eigenvalues -- -399.10093-399.09274-399.08839 -49.91685 -49.90892
 Alpha  occ. eigenvalues --  -49.90528 -44.39792 -44.39735 -44.39684 -44.39001
 Alpha  occ. eigenvalues --  -44.38926 -44.38901 -44.38595 -44.38584 -44.38535
 Alpha  occ. eigenvalues --   -6.28208  -6.27423  -6.27089  -6.03262  -6.02780
 Alpha  occ. eigenvalues --   -6.01886  -6.01242  -5.12990  -5.12513  -4.43736
 Alpha  occ. eigenvalues --   -4.43560  -4.43389  -4.42970  -4.42737  -4.42636
 Alpha  occ. eigenvalues --   -4.42541  -4.42488  -4.42331  -3.75542  -3.75466
 Alpha  occ. eigenvalues --   -3.75228  -3.75039  -3.74944  -3.74781  -3.74190
 Alpha  occ. eigenvalues --   -3.74099  -3.73788  -3.73595  -3.73355  -3.73190
 Alpha  occ. eigenvalues --   -3.46254  -3.46129  -3.45964  -3.45762  -3.45611
 Alpha  occ. eigenvalues --   -3.45522  -1.23203  -1.23162  -1.23011  -1.22919
 Alpha  occ. eigenvalues --   -1.22862  -1.22441  -1.22376  -1.22268  -1.22185
 Alpha  occ. eigenvalues --   -1.22098  -1.22025  -1.21979  -1.21902  -1.21795
 Alpha  occ. eigenvalues --   -1.21778  -1.09625  -1.09474  -1.09166  -1.09033
 Alpha  occ. eigenvalues --   -1.08953  -1.08900  -1.08722  -1.08554  -1.08459
 Alpha  occ. eigenvalues --   -1.08361  -1.07798  -1.07714  -1.07525  -1.07473
 Alpha  occ. eigenvalues --   -1.07409  -1.07236  -1.07111  -1.06969  -1.06855
 Alpha  occ. eigenvalues --   -1.06793  -1.02631  -1.02497  -1.02423  -1.02350
 Alpha  occ. eigenvalues --   -1.02223  -1.01925  -1.01906  -1.01822  -1.01657
 Alpha  occ. eigenvalues --   -1.01588  -0.68805  -0.62342  -0.59621  -0.58487
 Alpha  occ. eigenvalues --   -0.52703  -0.48461  -0.43683  -0.42137  -0.39780
 Alpha  occ. eigenvalues --   -0.30166  -0.28206  -0.27110  -0.26485  -0.25600
 Alpha  occ. eigenvalues --   -0.25219  -0.23584  -0.22274  -0.21819  -0.21523
 Alpha  occ. eigenvalues --   -0.20152
 Alpha virt. eigenvalues --   -0.07651  -0.07273  -0.07027  -0.06717  -0.05858
 Alpha virt. eigenvalues --   -0.05452  -0.04944  -0.04589  -0.03773  -0.02800
 Alpha virt. eigenvalues --   -0.02269  -0.01587  -0.00765   0.04480   0.05990

 Mulliken charges:
               1
     1  Sn   0.078429
     2  Bi   0.149471
     3  Sn  -0.008978
     4  Bi   0.039304
     5  Ge  -0.087721
     6  Ge  -0.056285
     7  Bi   0.007979
     8  Ge  -0.135239
     9  Bi   0.013041
 Sum of Mulliken charges =   0.00000

 Dipole moment (field-independent basis, Debye):
    X=              1.2274    Y=             -2.0704    Z=             -0.0762  Tot=              2.4081
 Quadrupole moment (field-independent basis, Debye-Ang):
   XX=           -213.9114   YY=           -218.7917   ZZ=           -222.8625
   XY=             -0.5336   XZ=             -0.8104   YZ=             -0.8911

  Exact polarizability: 387.019  -6.815 373.631  -5.373  -4.967 372.683
 Approx polarizability:1178.751 -14.4311191.878 -13.022 -39.1791159.199

                      1                      2                      3
                      A                      A                      A
 Frequencies --     37.9554                65.1667                74.9731
 Red. masses --    164.4217               102.4673               168.7453
 Frc consts  --      0.1396                 0.2564                 0.5588
 IR Inten    --      0.0124                 0.1533                 0.0220

                      4                      5                      6
                      A                      A                      A
 Frequencies --     81.4417                91.7137                94.7540
 Red. masses --    144.8536               152.2796               154.2165
 Frc consts  --      0.5661                 0.7547                 0.8158
 IR Inten    --      0.0882                 0.0194                 0.0216

                      7                      8                      9
                      A                      A                      A
 Frequencies --     97.5210               102.4113               107.3489
 Red. masses --    127.3492               135.9204               116.5887
 Frc consts  --      0.7136                 0.8399                 0.7916
 IR Inten    --      0.2088                 0.0837                 0.0486

                     10                     11                     12
                      A                      A                      A
 Frequencies --    112.3323               120.3170               123.8778
 Red. masses --    115.1559               151.3694               110.8168
 Frc consts  --      0.8561                 1.2910                 1.0019
 IR Inten    --      0.2346                 0.2529                 0.2723

                     13                     14                     15
                      A                      A                      A
 Frequencies --    134.4382               137.8657               143.0140
 Red. masses --    150.6013                91.3008                98.1186
 Frc consts  --      1.6037                 1.0224                 1.1824
 IR Inten    --      0.1403                 0.1029                 0.1595

                     16                     17                     18
                      A                      A                      A
 Frequencies --    151.4133               163.8868               164.3018
 Red. masses --    108.0019                80.5653                85.8202
 Frc consts  --      1.4588                 1.2749                 1.3650
 IR Inten    --      0.6343                 0.0761                 0.4268

                     19                     20                     21
                      A                      A                      A
 Frequencies --    169.2275               187.6924               198.8909
 Red. masses --     83.6706                85.9492                79.3491
 Frc consts  --      1.4118                 1.7840                 1.8494
 IR Inten    --      0.0848                 0.5174                 0.8940

 - Thermochemistry -
 -------------------
 Temperature   298.150 Kelvin.  Pressure   1.00000 Atm.
 Atom     1 has atomic number 50 and mass 117.90180

 Molecular mass:  1293.48874 amu.
 Principal axes and moments of inertia in atomic units:
                           1         2         3
     Eigenvalues --  ******************************
           X            0.99933  -0.03424  -0.01279
           Y            0.03374   0.99874  -0.03727
           Z            0.01405   0.03681   0.99922
 This molecule is an asymmetric top.
 Rotational symmetry number  1.
 Warning -- assumption of classical behavior for rotation
           may cause significant error
 Rotational temperatures (Kelvin)      0.00509     0.00441     0.00423
 Rotational constants (GHZ):           0.10615     0.09196     0.08815
 Zero-point vibrational energy      15315.5 (Joules/Mol)
                                    3.66048 (Kcal/Mol)
 Warning -- explicit consideration of  21 degrees of freedom as
           vibrations may cause significant error
 Vibrational temperatures:     54.61    93.76   107.87   117.18   131.96
          (Kelvin)            136.33   140.31   147.35   154.45   161.62
                              173.11   178.23   193.43   198.36   205.76
                              217.85   235.80   236.39   243.48   270.05
                              286.16

 Zero-point correction=                           0.005833 (Hartree/Particle)
 Thermal correction to Energy=                    0.023291
 Thermal correction to Enthalpy=                  0.024235
 Thermal correction to Gibbs Free Energy=        -0.047887
 Sum of electronic and zero-point Energies=          -7517.812947
 Sum of electronic and thermal Energies=             -7517.795490
 Sum of electronic and thermal Enthalpies=           -7517.794546
 Sum of electronic and thermal Free Energies=        -7517.866668

                     E (Thermal)             CV                S
                      KCal/Mol        Cal/Mol-Kelvin    Cal/Mol-Kelvin
 Total                   14.615             46.389            151.794
 Electronic               0.000              0.000              0.000
 Translational            0.889              2.981             47.349
 Rotational               0.889              2.981             37.166
 Vibrational             12.838             40.428             67.279
 Vibration     1          0.594              1.982              5.363
 Vibration     2          0.597              1.971              4.294
 Vibration     3          0.599              1.966              4.018
 Vibration     4          0.600              1.962              3.856
 Vibration     5          0.602              1.955              3.623
 Vibration     6          0.603              1.953              3.559
 Vibration     7          0.603              1.951              3.503
 Vibration     8          0.604              1.947              3.408
 Vibration     9          0.606              1.943              3.316
 Vibration    10          0.607              1.939              3.228
 Vibration    11          0.609              1.932              3.095
 Vibration    12          0.610              1.929              3.039
 Vibration    13          0.613              1.919              2.882
 Vibration    14          0.614              1.916              2.833
 Vibration    15          0.616              1.910              2.763
 Vibration    16          0.619              1.901              2.654
 Vibration    17          0.623              1.887              2.504
 Vibration    18          0.623              1.886              2.500
 Vibration    19          0.625              1.880              2.444
 Vibration    20          0.632              1.857              2.251
 Vibration    21          0.637              1.841              2.143

 Normal termination of Gaussian 09 at Tue Mar  6 18:47:45 2018.
