 Gaussian 09, Revision D.01,
 Gaussian 09:  ES64L-G09RevD.01 24-Apr-2013

 ----------------------------------------------------------------------
 #p PBE1PBE/Def2TZVP scf=(maxcycle=768) opt=(cartesian,maxcycle=512) fr
 eq
 ----------------------------------------------------------------------

 ---------------------
 01Final_coords.xyz_05
 ---------------------
 Symbolic Z-matrix:
 Charge =  0 Multiplicity = 1

 SCF Done:  E(RPBE1PBE) =  -7517.82347407     A.U. after   17 cycles
 SCF Done:  E(RPBE1PBE) =  -7517.83001361     A.U. after   12 cycles
 SCF Done:  E(RPBE1PBE) =  -7517.83172546     A.U. after   12 cycles
 SCF Done:  E(RPBE1PBE) =  -7517.83182996     A.U. after   11 cycles
 SCF Done:  E(RPBE1PBE) =  -7517.83188089     A.U. after   10 cycles
 SCF Done:  E(RPBE1PBE) =  -7517.83190044     A.U. after   10 cycles
 SCF Done:  E(RPBE1PBE) =  -7517.83190359     A.U. after    9 cycles
 Optimization completed.
    -- Stationary point found.
 Normal termination of Gaussian 09 at Tue Mar  6 14:45:58 2018.

 ----------------------------------------------------------------------
 #P Geom=AllCheck Guess=TCheck SCRF=Check GenChk RPBE1PBE/def2TZVP Freq
 ----------------------------------------------------------------------

 Structure from the checkpoint file:  "Isomer_05.chk"
 ---------------------
 01Final_coords.xyz_05
 ---------------------
 Charge =  0 Multiplicity = 1

                         Standard orientation:
 ---------------------------------------------------------------------
 Center     Atomic      Atomic             Coordinates (Angstroms)
 Number     Number       Type             X           Y           Z
 ---------------------------------------------------------------------
      1         50           0        2.241172    0.000054    1.490760
      2         50           0       -2.241176    0.000173    1.490755
      3         32           0       -0.000006    0.000455    3.038354
      4         83           0       -1.495682   -1.526290   -1.011284
      5         83           0       -1.495591    1.526106   -1.011612
      6         83           0        1.495594   -1.526344   -1.011278
      7         32           0        0.000032    2.060634    1.398127
      8         83           0        1.495683    1.526054   -1.011615
      9         32           0       -0.000027   -2.060216    1.398665
 ---------------------------------------------------------------------

 SCF Done:  E(RPBE1PBE) =  -7517.83190359     A.U. after    1 cycles

 The electronic state is 1-A.
 Alpha  occ. eigenvalues -- -399.09511-399.09511-399.08159 -49.91127 -49.91126
 Alpha  occ. eigenvalues --  -49.89870 -44.39208 -44.39207 -44.39201 -44.39201
 Alpha  occ. eigenvalues --  -44.39125 -44.39125 -44.37937 -44.37922 -44.37877
 Alpha  occ. eigenvalues --   -6.27659  -6.27659  -6.26436  -6.01983  -6.01983
 Alpha  occ. eigenvalues --   -6.01983  -6.01982  -5.13605  -5.13605  -4.43110
 Alpha  occ. eigenvalues --   -4.43110  -4.43097  -4.43096  -4.42847  -4.42847
 Alpha  occ. eigenvalues --   -4.41878  -4.41850  -4.41682  -3.74284  -3.74278
 Alpha  occ. eigenvalues --   -3.74271  -3.74264  -3.74058  -3.74054  -3.74053
 Alpha  occ. eigenvalues --   -3.74051  -3.74049  -3.74042  -3.74041  -3.74033
 Alpha  occ. eigenvalues --   -3.46846  -3.46846  -3.46791  -3.46791  -3.46548
 Alpha  occ. eigenvalues --   -3.46548  -1.22637  -1.22636  -1.22619  -1.22616
 Alpha  occ. eigenvalues --   -1.22441  -1.22421  -1.22412  -1.22412  -1.22362
 Alpha  occ. eigenvalues --   -1.22358  -1.21373  -1.21349  -1.21251  -1.21205
 Alpha  occ. eigenvalues --   -1.21147  -1.08772  -1.08428  -1.08265  -1.08237
 Alpha  occ. eigenvalues --   -1.08142  -1.08032  -1.08018  -1.07957  -1.07825
 Alpha  occ. eigenvalues --   -1.07823  -1.07754  -1.07662  -1.07537  -1.07506
 Alpha  occ. eigenvalues --   -1.07493  -1.07371  -1.07362  -1.07340  -1.07319
 Alpha  occ. eigenvalues --   -1.07043  -1.03101  -1.03093  -1.03091  -1.03091
 Alpha  occ. eigenvalues --   -1.02916  -1.02909  -1.02893  -1.02886  -1.02806
 Alpha  occ. eigenvalues --   -1.02782  -0.68088  -0.61858  -0.60979  -0.57270
 Alpha  occ. eigenvalues --   -0.53754  -0.46831  -0.45063  -0.41853  -0.40218
 Alpha  occ. eigenvalues --   -0.29842  -0.27558  -0.26879  -0.26147  -0.26001
 Alpha  occ. eigenvalues --   -0.23942  -0.23758  -0.23674  -0.22177  -0.21482
 Alpha  occ. eigenvalues --   -0.20582
 Alpha virt. eigenvalues --   -0.07686  -0.07650  -0.06305  -0.05894  -0.05538
 Alpha virt. eigenvalues --   -0.04986  -0.04170  -0.03973  -0.03719  -0.03710
 Alpha virt. eigenvalues --   -0.03426  -0.02209  -0.00334   0.04331   0.06153

 Mulliken charges:
               1
     1  Sn   0.078801
     2  Sn   0.078804
     3  Ge  -0.132603
     4  Bi   0.024134
     5  Bi   0.024131
     6  Bi   0.024138
     7  Ge  -0.060765
     8  Bi   0.024124
     9  Ge  -0.060764
 Sum of Mulliken charges =   0.00000

 Dipole moment (field-independent basis, Debye):
    X=             -0.0001    Y=             -0.0005    Z=             -2.4623  Tot=              2.4623
 Quadrupole moment (field-independent basis, Debye-Ang):
   XX=           -213.9508   YY=           -220.5326   ZZ=           -220.8563
   XY=              0.0000   XZ=              0.0000   YZ=              0.0004

  Exact polarizability: 392.046   0.000 361.479   0.000   0.004 375.530
 Approx polarizability:1185.124   0.0011113.880  -0.001   0.0301203.097

                      1                      2                      3
                      A                      A                      A
 Frequencies --     47.1270                76.0378                79.9846
 Red. masses --    194.5238                93.7895               167.7594
 Frc consts  --      0.2545                 0.3195                 0.6323
 IR Inten    --      0.0000                 0.1599                 0.0000

                      4                      5                      6
                      A                      A                      A
 Frequencies --     80.5257                95.0196               100.4960
 Red. masses --    151.3183               125.8096               150.8692
 Frc consts  --      0.5781                 0.6693                 0.8977
 IR Inten    --      0.0339                 0.0000                 0.2902

                      7                      8                      9
                      A                      A                      A
 Frequencies --    100.9972               101.1856               109.1241
 Red. masses --    159.9356               169.6430                93.0999
 Frc consts  --      0.9612                 1.0233                 0.6532
 IR Inten    --      0.0227                 0.0314                 0.0229

                     10                     11                     12
                      A                      A                      A
 Frequencies --    112.8028               116.2740               119.4508
 Red. masses --    119.0927               151.7309               154.1681
 Frc consts  --      0.8928                 1.2086                 1.2961
 IR Inten    --      0.0347                 0.0367                 0.0108

                     13                     14                     15
                      A                      A                      A
 Frequencies --    133.2441               140.0447               147.2082
 Red. masses --    123.5411                85.1213                92.7900
 Frc consts  --      1.2923                 0.9836                 1.1847
 IR Inten    --      0.3723                 0.0217                 0.0000

                     16                     17                     18
                      A                      A                      A
 Frequencies --    151.1108               158.9546               162.0965
 Red. masses --    124.3500                86.1942                84.5874
 Frc consts  --      1.6730                 1.2831                 1.3095
 IR Inten    --      1.2573                 0.0017                 0.2956

                     19                     20                     21
                      A                      A                      A
 Frequencies --    181.2288               191.7092               203.8541
 Red. masses --     76.8319                84.9029                78.6012
 Frc consts  --      1.4868                 1.8385                 1.9245
 IR Inten    --      0.1284                 1.1306                 0.6852

 - Thermochemistry -
 -------------------
 Temperature   298.150 Kelvin.  Pressure   1.00000 Atm.
 Atom     1 has atomic number 50 and mass 117.90180

 Molecular mass:  1293.48874 amu.
 Principal axes and moments of inertia in atomic units:
                           1         2         3
     Eigenvalues --  ******************************
           X            1.00000   0.00000   0.00000
           Y            0.00000   1.00000   0.00004
           Z            0.00000  -0.00004   1.00000
 This molecule is an asymmetric top.
 Rotational symmetry number  1.
 Warning -- assumption of classical behavior for rotation
           may cause significant error
 Rotational temperatures (Kelvin)      0.00493     0.00449     0.00431
 Rotational constants (GHZ):           0.10267     0.09355     0.08978
 Zero-point vibrational energy      15602.2 (Joules/Mol)
                                    3.72900 (Kcal/Mol)
 Warning -- explicit consideration of  21 degrees of freedom as
           vibrations may cause significant error
 Vibrational temperatures:     67.81   109.40   115.08   115.86   136.71
          (Kelvin)            144.59   145.31   145.58   157.01   162.30
                              167.29   171.86   191.71   201.49   211.80
                              217.41   228.70   233.22   260.75   275.83
                              293.30

 Zero-point correction=                           0.005943 (Hartree/Particle)
 Thermal correction to Energy=                    0.023310
 Thermal correction to Enthalpy=                  0.024254
 Thermal correction to Gibbs Free Energy=        -0.047315
 Sum of electronic and zero-point Energies=          -7517.825961
 Sum of electronic and thermal Energies=             -7517.808594
 Sum of electronic and thermal Enthalpies=           -7517.807650
 Sum of electronic and thermal Free Energies=        -7517.879218

                     E (Thermal)             CV                S
                      KCal/Mol        Cal/Mol-Kelvin    Cal/Mol-Kelvin
 Total                   14.627             46.351            150.628
 Electronic               0.000              0.000              0.000
 Translational            0.889              2.981             47.349
 Rotational               0.889              2.981             37.164
 Vibrational             12.849             40.390             66.115
 Vibration     1          0.595              1.979              4.934
 Vibration     2          0.599              1.965              3.991
 Vibration     3          0.600              1.963              3.891
 Vibration     4          0.600              1.962              3.878
 Vibration     5          0.603              1.953              3.554
 Vibration     6          0.604              1.949              3.445
 Vibration     7          0.604              1.948              3.435
 Vibration     8          0.604              1.948              3.431
 Vibration     9          0.606              1.942              3.284
 Vibration    10          0.607              1.939              3.220
 Vibration    11          0.608              1.936              3.161
 Vibration    12          0.609              1.933              3.109
 Vibration    13          0.613              1.920              2.899
 Vibration    14          0.615              1.913              2.803
 Vibration    15          0.617              1.906              2.708
 Vibration    16          0.619              1.901              2.658
 Vibration    17          0.621              1.893              2.562
 Vibration    18          0.622              1.889              2.525
 Vibration    19          0.630              1.865              2.316
 Vibration    20          0.634              1.851              2.211
 Vibration    21          0.640              1.834              2.098

 Normal termination of Gaussian 09 at Tue Mar  6 16:35:36 2018.
