 Gaussian 09, Revision D.01,
 Gaussian 09:  ES64L-G09RevD.01 24-Apr-2013

 ----------------------------------------------------------------------
 #p PBE1PBE/Def2TZVP scf=(maxcycle=768) opt=(cartesian,maxcycle=512) fr
 eq
 ----------------------------------------------------------------------

 ---------------------
 01Final_coords.xyz_46
 ---------------------
 Symbolic Z-matrix:
 Charge =  0 Multiplicity = 1

 SCF Done:  E(RPBE1PBE) =  -7517.81015088     A.U. after   18 cycles
 SCF Done:  E(RPBE1PBE) =  -7517.81633068     A.U. after   13 cycles
 SCF Done:  E(RPBE1PBE) =  -7517.81793904     A.U. after   12 cycles
 SCF Done:  E(RPBE1PBE) =  -7517.81809628     A.U. after   11 cycles
 SCF Done:  E(RPBE1PBE) =  -7517.81819831     A.U. after   11 cycles
 SCF Done:  E(RPBE1PBE) =  -7517.81823631     A.U. after   11 cycles
 SCF Done:  E(RPBE1PBE) =  -7517.81824381     A.U. after   10 cycles
 SCF Done:  E(RPBE1PBE) =  -7517.81824659     A.U. after   10 cycles
 SCF Done:  E(RPBE1PBE) =  -7517.81824850     A.U. after    9 cycles
 SCF Done:  E(RPBE1PBE) =  -7517.81824952     A.U. after    9 cycles
 SCF Done:  E(RPBE1PBE) =  -7517.81825131     A.U. after    9 cycles
 Optimization completed.
    -- Stationary point found.
 Normal termination of Gaussian 09 at Tue Mar  6 18:21:47 2018.

 ----------------------------------------------------------------------
 #P Geom=AllCheck Guess=TCheck SCRF=Check GenChk RPBE1PBE/def2TZVP Freq
 ----------------------------------------------------------------------

 Structure from the checkpoint file:  "Isomer_46.chk"
 ---------------------
 01Final_coords.xyz_46
 ---------------------
 Charge =  0 Multiplicity = 1

                         Standard orientation:
 ---------------------------------------------------------------------
 Center     Atomic      Atomic             Coordinates (Angstroms)
 Number     Number       Type             X           Y           Z
 ---------------------------------------------------------------------
      1         83           0       -2.270850    1.268411    0.068015
      2         83           0       -1.472799   -1.377071   -1.125502
      3         83           0        0.032078   -1.811767    1.473291
      4         32           0       -0.364043    1.188994   -2.015622
      5         83           0        1.534863   -1.169426   -1.113622
      6         50           0        2.211979    1.726560   -1.112731
      7         32           0        0.158584    2.519508    0.576068
      8         50           0        1.978232    0.526937    1.652309
      9         32           0       -0.695907    0.784714    2.406428
 ---------------------------------------------------------------------

 SCF Done:  E(RPBE1PBE) =  -7517.81825131     A.U. after    1 cycles

 The electronic state is 1-A.
 Alpha  occ. eigenvalues -- -399.10053-399.08746-399.08273 -49.91656 -49.90404
 Alpha  occ. eigenvalues --  -49.89930 -44.39763 -44.39696 -44.39663 -44.38492
 Alpha  occ. eigenvalues --  -44.38442 -44.38422 -44.38008 -44.37970 -44.37954
 Alpha  occ. eigenvalues --   -6.28183  -6.26960  -6.26474  -6.02820  -6.02675
 Alpha  occ. eigenvalues --   -6.01776  -6.01536  -5.13225  -5.13065  -4.43713
 Alpha  occ. eigenvalues --   -4.43509  -4.43394  -4.42455  -4.42317  -4.42212
 Alpha  occ. eigenvalues --   -4.41946  -4.41803  -4.41759  -3.75116  -3.75011
 Alpha  occ. eigenvalues --   -3.74950  -3.74830  -3.74758  -3.74669  -3.74125
 Alpha  occ. eigenvalues --   -3.73983  -3.73890  -3.73647  -3.73641  -3.73513
 Alpha  occ. eigenvalues --   -3.46563  -3.46316  -3.46303  -3.46218  -3.46177
 Alpha  occ. eigenvalues --   -3.46025  -1.23167  -1.23114  -1.23006  -1.22870
 Alpha  occ. eigenvalues --   -1.22846  -1.21962  -1.21907  -1.21795  -1.21760
 Alpha  occ. eigenvalues --   -1.21686  -1.21385  -1.21369  -1.21311  -1.21187
 Alpha  occ. eigenvalues --   -1.21167  -1.09367  -1.09108  -1.08822  -1.08800
 Alpha  occ. eigenvalues --   -1.08591  -1.08505  -1.08449  -1.08409  -1.08278
 Alpha  occ. eigenvalues --   -1.08181  -1.07732  -1.07597  -1.07532  -1.07459
 Alpha  occ. eigenvalues --   -1.07369  -1.07332  -1.07265  -1.07208  -1.07160
 Alpha  occ. eigenvalues --   -1.07089  -1.02914  -1.02761  -1.02650  -1.02613
 Alpha  occ. eigenvalues --   -1.02541  -1.02497  -1.02452  -1.02353  -1.02182
 Alpha  occ. eigenvalues --   -1.02083  -0.68566  -0.62528  -0.59214  -0.58618
 Alpha  occ. eigenvalues --   -0.52290  -0.48856  -0.43261  -0.42409  -0.39586
 Alpha  occ. eigenvalues --   -0.30032  -0.28403  -0.26927  -0.26278  -0.25430
 Alpha  occ. eigenvalues --   -0.25045  -0.23737  -0.22514  -0.21771  -0.20997
 Alpha  occ. eigenvalues --   -0.20307
 Alpha virt. eigenvalues --   -0.07730  -0.07452  -0.06849  -0.06507  -0.05954
 Alpha virt. eigenvalues --   -0.05218  -0.05123  -0.04302  -0.03659  -0.02306
 Alpha virt. eigenvalues --   -0.02208  -0.01557  -0.01134   0.04724   0.05849

 Mulliken charges:
               1
     1  Bi   0.048023
     2  Bi   0.024077
     3  Bi   0.037884
     4  Ge  -0.055218
     5  Bi   0.100653
     6  Sn  -0.036210
     7  Ge  -0.027055
     8  Sn   0.054135
     9  Ge  -0.146290
 Sum of Mulliken charges =   0.00000

 Dipole moment (field-independent basis, Debye):
    X=             -0.3829    Y=             -2.0610    Z=             -0.9886  Tot=              2.3177
 Quadrupole moment (field-independent basis, Debye-Ang):
   XX=           -212.4814   YY=           -218.9017   ZZ=           -223.0183
   XY=              1.1789   XZ=             -0.1054   YZ=             -0.1520

  Exact polarizability: 389.816  11.759 375.033  -0.019  -3.224 368.522
 Approx polarizability:1215.220  52.9971167.122 -16.075  -9.0951163.541

                      1                      2                      3
                      A                      A                      A
 Frequencies --     39.2832                62.1341                70.1933
 Red. masses --    159.1146               121.9849               154.8322
 Frc consts  --      0.1447                 0.2775                 0.4495
 IR Inten    --      0.0146                 0.0262                 0.0522

                      4                      5                      6
                      A                      A                      A
 Frequencies --     86.8008                90.3281                97.8378
 Red. masses --    152.7269               133.1797               174.4766
 Frc consts  --      0.6780                 0.6402                 0.9840
 IR Inten    --      0.0399                 0.1523                 0.0196

                      7                      8                      9
                      A                      A                      A
 Frequencies --     98.7483               104.4338               109.9917
 Red. masses --    147.0201               121.1697               126.5066
 Frc consts  --      0.8447                 0.7786                 0.9017
 IR Inten    --      0.1260                 0.0615                 0.2265

                     10                     11                     12
                      A                      A                      A
 Frequencies --    112.3027               118.0238               122.8776
 Red. masses --    133.8230                97.6156               119.3528
 Frc consts  --      0.9944                 0.8011                 1.0618
 IR Inten    --      0.0619                 0.7329                 0.1402

                     13                     14                     15
                      A                      A                      A
 Frequencies --    133.1994               136.5883               146.5106
 Red. masses --    114.0111               160.5589                82.0337
 Frc consts  --      1.1918                 1.7649                 1.0375
 IR Inten    --      0.4658                 0.0139                 0.0764

                     16                     17                     18
                      A                      A                      A
 Frequencies --    148.1019               159.0678               170.4082
 Red. masses --     89.4495                84.9660                84.9192
 Frc consts  --      1.1560                 1.2667                 1.4529
 IR Inten    --      0.0373                 0.0071                 0.2147

                     19                     20                     21
                      A                      A                      A
 Frequencies --    176.0449               183.8487               202.5679
 Red. masses --     87.1633                83.5027                82.0663
 Frc consts  --      1.5916                 1.6629                 1.9841
 IR Inten    --      0.5070                 0.8178                 1.1714

 - Thermochemistry -
 -------------------
 Temperature   298.150 Kelvin.  Pressure   1.00000 Atm.
 Atom     1 has atomic number 83 and mass 208.98040

 Molecular mass:  1293.48874 amu.
 Principal axes and moments of inertia in atomic units:
                           1         2         3
     Eigenvalues --  ******************************
           X            0.99609   0.08838   0.00100
           Y           -0.08838   0.99608  -0.00333
           Z           -0.00129   0.00323   0.99999
 This molecule is an asymmetric top.
 Rotational symmetry number  1.
 Warning -- assumption of classical behavior for rotation
           may cause significant error
 Rotational temperatures (Kelvin)      0.00495     0.00457     0.00417
 Rotational constants (GHZ):           0.10310     0.09516     0.08691
 Zero-point vibrational energy      15367.8 (Joules/Mol)
                                    3.67299 (Kcal/Mol)
 Warning -- explicit consideration of  21 degrees of freedom as
           vibrations may cause significant error
 Vibrational temperatures:     56.52    89.40   100.99   124.89   129.96
          (Kelvin)            140.77   142.08   150.26   158.25   161.58
                              169.81   176.79   191.64   196.52   210.80
                              213.09   228.86   245.18   253.29   264.52
                              291.45

 Zero-point correction=                           0.005853 (Hartree/Particle)
 Thermal correction to Energy=                    0.023296
 Thermal correction to Enthalpy=                  0.024240
 Thermal correction to Gibbs Free Energy=        -0.047835
 Sum of electronic and zero-point Energies=          -7517.812398
 Sum of electronic and thermal Energies=             -7517.794955
 Sum of electronic and thermal Enthalpies=           -7517.794011
 Sum of electronic and thermal Free Energies=        -7517.866086

                     E (Thermal)             CV                S
                      KCal/Mol        Cal/Mol-Kelvin    Cal/Mol-Kelvin
 Total                   14.618             46.379            151.694
 Electronic               0.000              0.000              0.000
 Translational            0.889              2.981             47.349
 Rotational               0.889              2.981             37.175
 Vibrational             12.841             40.417             67.170
 Vibration     1          0.594              1.981              5.295
 Vibration     2          0.597              1.972              4.388
 Vibration     3          0.598              1.968              4.148
 Vibration     4          0.601              1.958              3.731
 Vibration     5          0.602              1.956              3.653
 Vibration     6          0.603              1.951              3.497
 Vibration     7          0.604              1.950              3.479
 Vibration     8          0.605              1.946              3.370
 Vibration     9          0.606              1.941              3.269
 Vibration    10          0.607              1.939              3.229
 Vibration    11          0.608              1.934              3.132
 Vibration    12          0.610              1.930              3.055
 Vibration    13          0.613              1.920              2.899
 Vibration    14          0.614              1.917              2.851
 Vibration    15          0.617              1.906              2.717
 Vibration    16          0.617              1.905              2.696
 Vibration    17          0.621              1.892              2.561
 Vibration    18          0.626              1.879              2.431
 Vibration    19          0.628              1.872              2.370
 Vibration    20          0.631              1.862              2.289
 Vibration    21          0.639              1.836              2.110

 Normal termination of Gaussian 09 at Tue Mar  6 19:34:51 2018.
