 Gaussian 09, Revision D.01,
 Gaussian 09:  ES64L-G09RevD.01 24-Apr-2013

 ----------------------------------------------------------------------
 #p PBE1PBE/Def2TZVP scf=(maxcycle=768) opt=(cartesian,maxcycle=512) fr
 eq
 ----------------------------------------------------------------------

 ---------------------
 01Final_coords.xyz_24
 ---------------------
 Symbolic Z-matrix:
 Charge =  0 Multiplicity = 1

 SCF Done:  E(RPBE1PBE) =  -7517.81467792     A.U. after   17 cycles
 SCF Done:  E(RPBE1PBE) =  -7517.82042984     A.U. after   12 cycles
 SCF Done:  E(RPBE1PBE) =  -7517.82187124     A.U. after   12 cycles
 SCF Done:  E(RPBE1PBE) =  -7517.82201282     A.U. after   10 cycles
 SCF Done:  E(RPBE1PBE) =  -7517.82208351     A.U. after   10 cycles
 SCF Done:  E(RPBE1PBE) =  -7517.82209461     A.U. after   10 cycles
 SCF Done:  E(RPBE1PBE) =  -7517.82209764     A.U. after    9 cycles
 Optimization completed.
    -- Stationary point found.
 Normal termination of Gaussian 09 at Tue Mar  6 13:43:32 2018.

 ----------------------------------------------------------------------
 #P Geom=AllCheck Guess=TCheck SCRF=Check GenChk RPBE1PBE/def2TZVP Freq
 ----------------------------------------------------------------------

 Structure from the checkpoint file:  "Isomer_24.chk"
 ---------------------
 01Final_coords.xyz_24
 ---------------------
 Charge =  0 Multiplicity = 1

                         Standard orientation:
 ---------------------------------------------------------------------
 Center     Atomic      Atomic             Coordinates (Angstroms)
 Number     Number       Type             X           Y           Z
 ---------------------------------------------------------------------
      1         50           0        0.000120   -0.063362   -2.338253
      2         32           0        0.000437   -1.775903    2.187394
      3         83           0       -2.160699    1.144907   -0.614980
      4         83           0        2.160412    1.145493   -0.614740
      5         83           0        1.553843   -1.735796   -0.190239
      6         32           0        1.355523    0.455406    2.108644
      7         50           0       -0.000432    2.578856    0.911973
      8         32           0       -1.355950    0.454682    2.108372
      9         83           0       -1.553371   -1.736153   -0.190007
 ---------------------------------------------------------------------

 SCF Done:  E(RPBE1PBE) =  -7517.82209764     A.U. after    1 cycles

 The electronic state is 1-A.
 Alpha  occ. eigenvalues -- -399.09223-399.09223-399.09176 -49.90856 -49.90854
 Alpha  occ. eigenvalues --  -49.90848 -44.38957 -44.38956 -44.38918 -44.38914
 Alpha  occ. eigenvalues --  -44.38893 -44.38893 -44.38865 -44.38864 -44.38845
 Alpha  occ. eigenvalues --   -6.27406  -6.27405  -6.27404  -6.02969  -6.02969
 Alpha  occ. eigenvalues --   -6.01226  -6.01225  -5.13762  -5.12964  -4.42928
 Alpha  occ. eigenvalues --   -4.42927  -4.42852  -4.42832  -4.42750  -4.42748
 Alpha  occ. eigenvalues --   -4.42627  -4.42621  -4.42614  -3.75233  -3.75224
 Alpha  occ. eigenvalues --   -3.75142  -3.75140  -3.74976  -3.74973  -3.73539
 Alpha  occ. eigenvalues --   -3.73538  -3.73398  -3.73397  -3.73151  -3.73150
 Alpha  occ. eigenvalues --   -3.47013  -3.46905  -3.46714  -3.46222  -3.46099
 Alpha  occ. eigenvalues --   -3.45943  -1.22523  -1.22512  -1.22453  -1.22420
 Alpha  occ. eigenvalues --   -1.22378  -1.22332  -1.22292  -1.22291  -1.22230
 Alpha  occ. eigenvalues --   -1.22200  -1.22130  -1.22068  -1.21978  -1.21951
 Alpha  occ. eigenvalues --   -1.21852  -1.09412  -1.09112  -1.09019  -1.08924
 Alpha  occ. eigenvalues --   -1.08835  -1.08801  -1.08704  -1.08632  -1.08535
 Alpha  occ. eigenvalues --   -1.08398  -1.07205  -1.07202  -1.07128  -1.07109
 Alpha  occ. eigenvalues --   -1.07039  -1.07010  -1.06845  -1.06833  -1.06796
 Alpha  occ. eigenvalues --   -1.06742  -1.03220  -1.03218  -1.03006  -1.02951
 Alpha  occ. eigenvalues --   -1.02883  -1.02420  -1.02415  -1.02368  -1.02220
 Alpha  occ. eigenvalues --   -1.02141  -0.68352  -0.62926  -0.60145  -0.56542
 Alpha  occ. eigenvalues --   -0.55013  -0.45713  -0.43861  -0.43662  -0.39967
 Alpha  occ. eigenvalues --   -0.30035  -0.27629  -0.27538  -0.26250  -0.26036
 Alpha  occ. eigenvalues --   -0.24641  -0.23738  -0.22393  -0.21995  -0.21649
 Alpha  occ. eigenvalues --   -0.20121
 Alpha virt. eigenvalues --   -0.08038  -0.07378  -0.06454  -0.06071  -0.05932
 Alpha virt. eigenvalues --   -0.05470  -0.05133  -0.05050  -0.03742  -0.02360
 Alpha virt. eigenvalues --   -0.02285  -0.01824  -0.01116   0.05114   0.05550

 Mulliken charges:
               1
     1  Sn  -0.009923
     2  Ge  -0.137329
     3  Bi  -0.017192
     4  Bi  -0.017229
     5  Bi   0.119589
     6  Ge  -0.046635
     7  Sn   0.035736
     8  Ge  -0.046615
     9  Bi   0.119599
 Sum of Mulliken charges =   0.00000

 Dipole moment (field-independent basis, Debye):
    X=             -0.0003    Y=             -0.6544    Z=             -2.0083  Tot=              2.1123
 Quadrupole moment (field-independent basis, Debye-Ang):
   XX=           -216.3880   YY=           -214.6357   ZZ=           -224.1675
   XY=             -0.0010   XZ=              0.0008   YZ=             -1.1083

  Exact polarizability: 376.527  -0.005 384.053   0.002   2.347 374.448
 Approx polarizability:1171.921  -0.0411211.149   0.041 -30.0961168.587

                      1                      2                      3
                      A                      A                      A
 Frequencies --     29.9044                43.2865                78.4894
 Red. masses --    142.9026               131.5139               169.4535
 Frc consts  --      0.0753                 0.1452                 0.6151
 IR Inten    --      0.0916                 0.2354                 0.0017

                      4                      5                      6
                      A                      A                      A
 Frequencies --     80.8049                85.1013                97.3072
 Red. masses --    152.0506               133.1825               104.3816
 Frc consts  --      0.5849                 0.5683                 0.5823
 IR Inten    --      0.0149                 0.1195                 0.0632

                      7                      8                      9
                      A                      A                      A
 Frequencies --    104.6938               108.3979               109.8312
 Red. masses --    153.2254               147.8455               114.6270
 Frc consts  --      0.9895                 1.0235                 0.8147
 IR Inten    --      0.0530                 0.3731                 0.1746

                     10                     11                     12
                      A                      A                      A
 Frequencies --    111.7597               114.8268               117.8129
 Red. masses --    106.7829               155.0838               116.2910
 Frc consts  --      0.7858                 1.2048                 0.9510
 IR Inten    --      0.0712                 0.2374                 0.1495

                     13                     14                     15
                      A                      A                      A
 Frequencies --    130.2715               138.5678               139.0684
 Red. masses --     99.5063               116.3060               143.2739
 Frc consts  --      0.9949                 1.3158                 1.6326
 IR Inten    --      0.2508                 1.4291                 0.0403

                     16                     17                     18
                      A                      A                      A
 Frequencies --    146.1800               159.1712               169.9964
 Red. masses --    111.6531                81.6226                84.0207
 Frc consts  --      1.4057                 1.2184                 1.4306
 IR Inten    --      0.1039                 0.0003                 0.0841

                     19                     20                     21
                      A                      A                      A
 Frequencies --    182.6865               184.1463               217.8030
 Red. masses --     80.2319                82.2394                74.9520
 Frc consts  --      1.5776                 1.6431                 2.0949
 IR Inten    --      0.0036                 0.3715                 1.3201

 - Thermochemistry -
 -------------------
 Temperature   298.150 Kelvin.  Pressure   1.00000 Atm.
 Atom     1 has atomic number 50 and mass 117.90180

 Molecular mass:  1293.48874 amu.
 Principal axes and moments of inertia in atomic units:
                           1         2         3
     Eigenvalues --  ******************************
           X            1.00000  -0.00002   0.00000
           Y            0.00002   0.99997   0.00780
           Z            0.00000  -0.00780   0.99997
 This molecule is an asymmetric top.
 Rotational symmetry number  1.
 Warning -- assumption of classical behavior for rotation
           may cause significant error
 Rotational temperatures (Kelvin)      0.00507     0.00470     0.00398
 Rotational constants (GHZ):           0.10569     0.09799     0.08302
 Zero-point vibrational energy      15253.0 (Joules/Mol)
                                    3.64556 (Kcal/Mol)
 Warning -- explicit consideration of  21 degrees of freedom as
           vibrations may cause significant error
 Vibrational temperatures:     43.03    62.28   112.93   116.26   122.44
          (Kelvin)            140.00   150.63   155.96   158.02   160.80
                              165.21   169.51   187.43   199.37   200.09
                              210.32   229.01   244.59   262.84   264.95
                              313.37

 Zero-point correction=                           0.005810 (Hartree/Particle)
 Thermal correction to Energy=                    0.023300
 Thermal correction to Enthalpy=                  0.024244
 Thermal correction to Gibbs Free Energy=        -0.048398
 Sum of electronic and zero-point Energies=          -7517.816288
 Sum of electronic and thermal Energies=             -7517.798798
 Sum of electronic and thermal Enthalpies=           -7517.797853
 Sum of electronic and thermal Free Energies=        -7517.870495

                     E (Thermal)             CV                S
                      KCal/Mol        Cal/Mol-Kelvin    Cal/Mol-Kelvin
 Total                   14.621             46.372            152.888
 Electronic               0.000              0.000              0.000
 Translational            0.889              2.981             47.349
 Rotational               0.889              2.981             37.167
 Vibrational             12.844             40.410             68.372
 Vibration     1          0.594              1.984              5.836
 Vibration     2          0.595              1.980              5.103
 Vibration     3          0.600              1.964              3.928
 Vibration     4          0.600              1.962              3.871
 Vibration     5          0.601              1.960              3.770
 Vibration     6          0.603              1.951              3.508
 Vibration     7          0.605              1.945              3.365
 Vibration     8          0.606              1.943              3.297
 Vibration     9          0.606              1.941              3.272
 Vibration    10          0.607              1.940              3.238
 Vibration    11          0.608              1.937              3.186
 Vibration    12          0.608              1.935              3.136
 Vibration    13          0.612              1.923              2.942
 Vibration    14          0.614              1.915              2.824
 Vibration    15          0.615              1.914              2.817
 Vibration    16          0.617              1.907              2.721
 Vibration    17          0.621              1.892              2.560
 Vibration    18          0.625              1.879              2.436
 Vibration    19          0.630              1.863              2.301
 Vibration    20          0.631              1.861              2.286
 Vibration    21          0.646              1.814              1.977

 Normal termination of Gaussian 09 at Tue Mar  6 14:55:34 2018.
