 Gaussian 09, Revision D.01,
 Gaussian 09:  ES64L-G09RevD.01 24-Apr-2013

 ----------------------------------------------------------------------
 #p PBE1PBE/Def2TZVP scf=(maxcycle=768) opt=(cartesian,maxcycle=512) fr
 eq
 ----------------------------------------------------------------------

 ---------------------
 01Final_coords.xyz_55
 ---------------------
 Symbolic Z-matrix:
 Charge =  0 Multiplicity = 1

 SCF Done:  E(RPBE1PBE) =  -7517.80187574     A.U. after   16 cycles
 SCF Done:  E(RPBE1PBE) =  -7517.80743478     A.U. after   13 cycles
 SCF Done:  E(RPBE1PBE) =  -7517.80866244     A.U. after   12 cycles
 SCF Done:  E(RPBE1PBE) =  -7517.80876920     A.U. after   11 cycles
 SCF Done:  E(RPBE1PBE) =  -7517.80881248     A.U. after   10 cycles
 SCF Done:  E(RPBE1PBE) =  -7517.80883744     A.U. after   10 cycles
 SCF Done:  E(RPBE1PBE) =  -7517.80885693     A.U. after    9 cycles
 SCF Done:  E(RPBE1PBE) =  -7517.80884486     A.U. after    8 cycles
 SCF Done:  E(RPBE1PBE) =  -7517.80866178     A.U. after   13 cycles
 SCF Done:  E(RPBE1PBE) =  -7517.80882276     A.U. after    7 cycles
 SCF Done:  E(RPBE1PBE) =  -7517.80885948     A.U. after    4 cycles
 Optimization completed.
    -- Stationary point found.
 Normal termination of Gaussian 09 at Tue Mar  6 18:41:45 2018.

 ----------------------------------------------------------------------
 #P Geom=AllCheck Guess=TCheck SCRF=Check GenChk RPBE1PBE/def2TZVP Freq
 ----------------------------------------------------------------------

 Structure from the checkpoint file:  "Isomer_55.chk"
 ---------------------
 01Final_coords.xyz_55
 ---------------------
 Charge =  0 Multiplicity = 1

                         Standard orientation:
 ---------------------------------------------------------------------
 Center     Atomic      Atomic             Coordinates (Angstroms)
 Number     Number       Type             X           Y           Z
 ---------------------------------------------------------------------
      1         32           0       -0.576706   -1.295492    2.188048
      2         83           0        1.285216    2.034741   -0.140972
      3         50           0        2.034767   -0.385984    1.589853
      4         50           0        2.278637   -0.358313   -1.580458
      5         83           0       -2.224890   -1.083261   -0.160191
      6         83           0       -1.687614    1.820248   -0.273180
      7         32           0       -0.451604    0.002208   -2.178634
      8         83           0        0.503780   -2.329132   -0.273429
      9         32           0       -0.203535    1.308263    2.174814
 ---------------------------------------------------------------------

 SCF Done:  E(RPBE1PBE) =  -7517.80885948     A.U. after    1 cycles

 The electronic state is 1-A.
 Alpha  occ. eigenvalues -- -399.10362-399.08459-399.08290 -49.91941 -49.90102
 Alpha  occ. eigenvalues --  -49.89948 -44.40030 -44.40000 -44.39953 -44.38185
 Alpha  occ. eigenvalues --  -44.38169 -44.38097 -44.38037 -44.38011 -44.37938
 Alpha  occ. eigenvalues --   -6.28452  -6.26638  -6.26487  -6.02324  -6.02254
 Alpha  occ. eigenvalues --   -6.02250  -6.01988  -5.13325  -5.13288  -4.43912
 Alpha  occ. eigenvalues --   -4.43823  -4.43678  -4.42120  -4.42060  -4.41992
 Alpha  occ. eigenvalues --   -4.41900  -4.41817  -4.41651  -3.74664  -3.74604
 Alpha  occ. eigenvalues --   -3.74547  -3.74449  -3.74443  -3.74363  -3.74294
 Alpha  occ. eigenvalues --   -3.74288  -3.74230  -3.74194  -3.74166  -3.73934
 Alpha  occ. eigenvalues --   -3.46554  -3.46531  -3.46476  -3.46407  -3.46300
 Alpha  occ. eigenvalues --   -3.46291  -1.23373  -1.23354  -1.23228  -1.23171
 Alpha  occ. eigenvalues --   -1.23151  -1.21641  -1.21630  -1.21558  -1.21501
 Alpha  occ. eigenvalues --   -1.21486  -1.21373  -1.21355  -1.21188  -1.21149
 Alpha  occ. eigenvalues --   -1.21030  -1.09072  -1.08795  -1.08659  -1.08436
 Alpha  occ. eigenvalues --   -1.08326  -1.08263  -1.08191  -1.08095  -1.08059
 Alpha  occ. eigenvalues --   -1.08049  -1.07970  -1.07909  -1.07866  -1.07811
 Alpha  occ. eigenvalues --   -1.07691  -1.07636  -1.07570  -1.07529  -1.07376
 Alpha  occ. eigenvalues --   -1.07309  -1.02931  -1.02838  -1.02710  -1.02692
 Alpha  occ. eigenvalues --   -1.02669  -1.02643  -1.02606  -1.02563  -1.02436
 Alpha  occ. eigenvalues --   -1.02378  -0.68353  -0.63344  -0.60783  -0.54734
 Alpha  occ. eigenvalues --   -0.53674  -0.48161  -0.43440  -0.42066  -0.40338
 Alpha  occ. eigenvalues --   -0.29787  -0.28791  -0.27335  -0.25872  -0.25235
 Alpha  occ. eigenvalues --   -0.24511  -0.23692  -0.23012  -0.22171  -0.21141
 Alpha  occ. eigenvalues --   -0.19459
 Alpha virt. eigenvalues --   -0.07986  -0.07371  -0.07177  -0.06692  -0.05363
 Alpha virt. eigenvalues --   -0.04964  -0.04650  -0.04393  -0.04309  -0.03577
 Alpha virt. eigenvalues --   -0.02878  -0.01548  -0.00022   0.04430   0.05567

 Mulliken charges:
               1
     1  Ge  -0.145208
     2  Bi   0.111627
     3  Sn   0.064354
     4  Sn  -0.045616
     5  Bi   0.068190
     6  Bi   0.019266
     7  Ge  -0.079537
     8  Bi   0.113320
     9  Ge  -0.106396
 Sum of Mulliken charges =   0.00000

 Dipole moment (field-independent basis, Debye):
    X=             -0.3775    Y=              0.1153    Z=             -1.3991  Tot=              1.4537
 Quadrupole moment (field-independent basis, Debye-Ang):
   XX=           -212.0965   YY=           -214.1781   ZZ=           -227.6559
   XY=             -0.2027   XZ=             -0.2304   YZ=             -0.1424

  Exact polarizability: 394.520  -3.408 372.287  -4.909   0.050 368.124
 Approx polarizability:1227.939  -7.3391142.126 -43.107   0.1171218.486

 ******    1 imaginary frequencies (negative Signs) ******

                      1                      2                      3
                      A                      A                      A
 Frequencies --    -13.6161                56.8429                71.2280
 Red. masses --    132.9685               140.1419               144.4529
 Frc consts  --      0.0145                 0.2668                 0.4318
 IR Inten    --      0.1356                 0.1185                 0.0116

                      4                      5                      6
                      A                      A                      A
 Frequencies --     80.6819                87.3607                92.0814
 Red. masses --    161.8301               115.2003               122.9763
 Frc consts  --      0.6207                 0.5180                 0.6144
 IR Inten    --      0.1217                 0.0933                 0.1238

                      7                      8                      9
                      A                      A                      A
 Frequencies --     96.5983               109.5676               113.9005
 Red. masses --    126.7260               106.1730               151.3042
 Frc consts  --      0.6967                 0.7510                 1.1565
 IR Inten    --      0.0761                 0.1585                 0.1249

                     10                     11                     12
                      A                      A                      A
 Frequencies --    116.0024               118.1250               125.5772
 Red. masses --    111.2194               126.4409               157.8419
 Frc consts  --      0.8818                 1.0395                 1.4665
 IR Inten    --      0.4591                 0.2618                 0.2944

                     13                     14                     15
                      A                      A                      A
 Frequencies --    133.4231               135.9397               147.3850
 Red. masses --    122.0002               119.2005                94.9526
 Frc consts  --      1.2796                 1.2978                 1.2152
 IR Inten    --      0.1460                 0.2427                 0.4380

                     16                     17                     18
                      A                      A                      A
 Frequencies --    152.9741               156.3068               162.3870
 Red. masses --     93.5896                92.0636                94.0551
 Frc consts  --      1.2904                 1.3252                 1.4613
 IR Inten    --      0.2299                 0.0305                 0.9763

                     19                     20                     21
                      A                      A                      A
 Frequencies --    172.9397               176.9537               190.1412
 Red. masses --     81.8286                85.8478                78.1460
 Frc consts  --      1.4419                 1.5838                 1.6646
 IR Inten    --      0.0529                 0.6141                 1.2781

 - Thermochemistry -
 -------------------
 Temperature   298.150 Kelvin.  Pressure   1.00000 Atm.
 Atom     1 has atomic number 32 and mass  73.92118

 Molecular mass:  1293.48874 amu.
 Principal axes and moments of inertia in atomic units:
                           1         2         3
     Eigenvalues --  ******************************
           X            0.18660   0.98242  -0.00500
           Y            0.98243  -0.18661  -0.00023
           Z            0.00116   0.00487   0.99999
 This molecule is an asymmetric top.
 Rotational symmetry number  1.
 Warning -- assumption of classical behavior for rotation
           may cause significant error
 Rotational temperatures (Kelvin)      0.00499     0.00494     0.00380
 Rotational constants (GHZ):           0.10407     0.10295     0.07909
    1 imaginary frequencies ignored.
 Zero-point vibrational energy      14931.9 (Joules/Mol)
                                    3.56881 (Kcal/Mol)
 Warning -- explicit consideration of  20 degrees of freedom as
           vibrations may cause significant error
 Vibrational temperatures:     81.78   102.48   116.08   125.69   132.48
          (Kelvin)            138.98   157.64   163.88   166.90   169.96
                              180.68   191.97   195.59   212.05   220.10
                              224.89   233.64   248.82   254.60   273.57

 Zero-point correction=                           0.005687 (Hartree/Particle)
 Thermal correction to Energy=                    0.022330
 Thermal correction to Enthalpy=                  0.023275
 Thermal correction to Gibbs Free Energy=        -0.046538
 Sum of electronic and zero-point Energies=          -7517.803172
 Sum of electronic and thermal Energies=             -7517.786529
 Sum of electronic and thermal Enthalpies=           -7517.785585
 Sum of electronic and thermal Free Energies=        -7517.855398

                     E (Thermal)             CV                S
                      KCal/Mol        Cal/Mol-Kelvin    Cal/Mol-Kelvin
 Total                   14.013             44.435            146.933
 Electronic               0.000              0.000              0.000
 Translational            0.889              2.981             47.349
 Rotational               0.889              2.981             37.182
 Vibrational             12.235             38.473             62.403
 Vibration     1          0.596              1.975              4.564
 Vibration     2          0.598              1.968              4.119
 Vibration     3          0.600              1.962              3.874
 Vibration     4          0.601              1.958              3.718
 Vibration     5          0.602              1.955              3.615
 Vibration     6          0.603              1.952              3.522
 Vibration     7          0.606              1.942              3.277
 Vibration     8          0.607              1.938              3.201
 Vibration     9          0.608              1.936              3.166
 Vibration    10          0.608              1.934              3.131
 Vibration    11          0.611              1.927              3.013
 Vibration    12          0.613              1.920              2.896
 Vibration    13          0.614              1.917              2.860
 Vibration    14          0.617              1.906              2.706
 Vibration    15          0.619              1.899              2.635
 Vibration    16          0.620              1.896              2.594
 Vibration    17          0.622              1.889              2.522
 Vibration    18          0.626              1.876              2.403
 Vibration    19          0.628              1.871              2.360
 Vibration    20          0.633              1.853              2.226

 Normal termination of Gaussian 09 at Tue Mar  6 19:54:57 2018.
