 Gaussian 09, Revision D.01,
 Gaussian 09:  ES64L-G09RevD.01 24-Apr-2013

 ----------------------------------------------------------------------
 #p PBE1PBE/Def2TZVP scf=(maxcycle=768) opt=(cartesian,maxcycle=512) fr
 eq
 ----------------------------------------------------------------------

 ---------------------
 01Final_coords.xyz_13
 ---------------------
 Symbolic Z-matrix:
 Charge =  0 Multiplicity = 1

 SCF Done:  E(RPBE1PBE) =  -7517.81536828     A.U. after   16 cycles
 SCF Done:  E(RPBE1PBE) =  -7517.82058411     A.U. after   13 cycles
 SCF Done:  E(RPBE1PBE) =  -7517.82183028     A.U. after   12 cycles
 SCF Done:  E(RPBE1PBE) =  -7517.82197333     A.U. after   11 cycles
 SCF Done:  E(RPBE1PBE) =  -7517.82208268     A.U. after   11 cycles
 SCF Done:  E(RPBE1PBE) =  -7517.82210612     A.U. after   11 cycles
 SCF Done:  E(RPBE1PBE) =  -7517.82211647     A.U. after   11 cycles
 SCF Done:  E(RPBE1PBE) =  -7517.82212138     A.U. after   10 cycles
 SCF Done:  E(RPBE1PBE) =  -7517.82212045     A.U. after   11 cycles
 SCF Done:  E(RPBE1PBE) =  -7517.82212322     A.U. after    5 cycles
 SCF Done:  E(RPBE1PBE) =  -7517.82212592     A.U. after    9 cycles
 SCF Done:  E(RPBE1PBE) =  -7517.82212393     A.U. after   10 cycles
 SCF Done:  E(RPBE1PBE) =  -7517.82212655     A.U. after    4 cycles
 SCF Done:  E(RPBE1PBE) =  -7517.82212540     A.U. after    9 cycles
 SCF Done:  E(RPBE1PBE) =  -7517.82212656     A.U. after    1 cycles
 SCF Done:  E(RPBE1PBE) =  -7517.82212721     A.U. after    9 cycles
 Optimization completed.
    -- Stationary point found.
 Normal termination of Gaussian 09 at Tue Mar  6 14:46:10 2018.

 ----------------------------------------------------------------------
 #P Geom=AllCheck Guess=TCheck SCRF=Check GenChk RPBE1PBE/def2TZVP Freq
 ----------------------------------------------------------------------

 Structure from the checkpoint file:  "Isomer_13.chk"
 ---------------------
 01Final_coords.xyz_13
 ---------------------
 Charge =  0 Multiplicity = 1

                         Standard orientation:
 ---------------------------------------------------------------------
 Center     Atomic      Atomic             Coordinates (Angstroms)
 Number     Number       Type             X           Y           Z
 ---------------------------------------------------------------------
      1         83           0        1.949870   -1.054634    1.244584
      2         32           0       -0.712281   -1.156204    2.098262
      3         83           0       -1.731091   -1.680229   -0.559987
      4         32           0        0.495681    1.280410    2.050358
      5         83           0       -2.137251    0.951540    0.806579
      6         32           0       -0.216328    2.757751   -0.081735
      7         83           0        1.942412    1.169021   -0.790640
      8         50           0       -0.821473    0.790537   -2.156707
      9         50           0        1.058807   -1.615247   -1.608990
 ---------------------------------------------------------------------

 SCF Done:  E(RPBE1PBE) =  -7517.82212721     A.U. after    2 cycles

 The electronic state is 1-A.
 Alpha  occ. eigenvalues -- -399.09908-399.09330-399.09272 -49.91506 -49.91000
 Alpha  occ. eigenvalues --  -49.90907 -44.39597 -44.39547 -44.39529 -44.39069
 Alpha  occ. eigenvalues --  -44.39046 -44.39019 -44.38975 -44.38954 -44.38938
 Alpha  occ. eigenvalues --   -6.28040  -6.27548  -6.27447  -6.02653  -6.02368
 Alpha  occ. eigenvalues --   -6.01178  -6.01175  -5.13746  -5.13284  -4.43521
 Alpha  occ. eigenvalues --   -4.43355  -4.43310  -4.42998  -4.42903  -4.42883
 Alpha  occ. eigenvalues --   -4.42821  -4.42794  -4.42739  -3.74922  -3.74818
 Alpha  occ. eigenvalues --   -3.74673  -3.74629  -3.74528  -3.74384  -3.73514
 Alpha  occ. eigenvalues --   -3.73500  -3.73350  -3.73335  -3.73108  -3.73087
 Alpha  occ. eigenvalues --   -3.46978  -3.46832  -3.46779  -3.46497  -3.46405
 Alpha  occ. eigenvalues --   -3.46301  -1.22982  -1.22948  -1.22904  -1.22850
 Alpha  occ. eigenvalues --   -1.22775  -1.22463  -1.22455  -1.22396  -1.22337
 Alpha  occ. eigenvalues --   -1.22323  -1.22305  -1.22268  -1.22256  -1.22174
 Alpha  occ. eigenvalues --   -1.22163  -1.08874  -1.08644  -1.08588  -1.08560
 Alpha  occ. eigenvalues --   -1.08415  -1.08352  -1.08306  -1.08243  -1.08129
 Alpha  occ. eigenvalues --   -1.08013  -1.07177  -1.07163  -1.07081  -1.07073
 Alpha  occ. eigenvalues --   -1.06967  -1.06955  -1.06789  -1.06762  -1.06741
 Alpha  occ. eigenvalues --   -1.06683  -1.03247  -1.03155  -1.03097  -1.03044
 Alpha  occ. eigenvalues --   -1.02964  -1.02653  -1.02633  -1.02591  -1.02455
 Alpha  occ. eigenvalues --   -1.02415  -0.68107  -0.63634  -0.59585  -0.58553
 Alpha  occ. eigenvalues --   -0.49571  -0.48271  -0.44712  -0.42907  -0.40359
 Alpha  occ. eigenvalues --   -0.29954  -0.27747  -0.27445  -0.26439  -0.25350
 Alpha  occ. eigenvalues --   -0.24462  -0.24040  -0.22950  -0.21937  -0.21457
 Alpha  occ. eigenvalues --   -0.20166
 Alpha virt. eigenvalues --   -0.07394  -0.06998  -0.06539  -0.06234  -0.05749
 Alpha virt. eigenvalues --   -0.05389  -0.04773  -0.04558  -0.04028  -0.03535
 Alpha virt. eigenvalues --   -0.02450  -0.02057  -0.00832   0.04992   0.05514

 Mulliken charges:
               1
     1  Bi   0.023118
     2  Ge  -0.107045
     3  Bi  -0.002564
     4  Ge  -0.028310
     5  Bi   0.153248
     6  Ge  -0.177499
     7  Bi   0.119823
     8  Sn   0.040457
     9  Sn  -0.021228
 Sum of Mulliken charges =   0.00000

 Dipole moment (field-independent basis, Debye):
    X=             -0.0286    Y=             -0.3389    Z=             -0.7044  Tot=              0.7822
 Quadrupole moment (field-independent basis, Debye-Ang):
   XX=           -212.9469   YY=           -218.7802   ZZ=           -222.7726
   XY=             -0.9873   XZ=             -0.9770   YZ=             -0.4355

  Exact polarizability: 379.134  -5.201 377.714   0.986   3.428 375.088
 Approx polarizability:1147.221 -11.0621231.259   6.876   8.2611167.494

                      1                      2                      3
                      A                      A                      A
 Frequencies --     36.6284                52.5860                75.2781
 Red. masses --    138.8208               113.7870               176.8113
 Frc consts  --      0.1097                 0.1854                 0.5903
 IR Inten    --      0.0760                 0.2842                 0.0045

                      4                      5                      6
                      A                      A                      A
 Frequencies --     84.0934                87.0548                91.2373
 Red. masses --    137.1031               155.2302               165.9907
 Frc consts  --      0.5712                 0.6931                 0.8141
 IR Inten    --      0.0236                 0.0685                 0.0105

                      7                      8                      9
                      A                      A                      A
 Frequencies --     96.6174                98.7969               108.6362
 Red. masses --    125.1640               127.1457               141.8470
 Frc consts  --      0.6884                 0.7312                 0.9863
 IR Inten    --      0.1464                 0.1117                 0.1351

                     10                     11                     12
                      A                      A                      A
 Frequencies --    112.9260               117.0357               128.3121
 Red. masses --    116.8785               114.1851               115.6179
 Frc consts  --      0.8782                 0.9215                 1.1215
 IR Inten    --      0.2170                 0.3051                 0.0921

                     13                     14                     15
                      A                      A                      A
 Frequencies --    139.3674               140.4693               144.4211
 Red. masses --    123.7011               108.8343               112.4859
 Frc consts  --      1.4156                 1.2653                 1.3823
 IR Inten    --      0.2765                 0.7175                 0.4688

                     16                     17                     18
                      A                      A                      A
 Frequencies --    149.7544               156.7173               175.6854
 Red. masses --     94.1723                78.0815                85.6495
 Frc consts  --      1.2443                 1.1299                 1.5576
 IR Inten    --      0.4499                 0.1120                 0.2458

                     19                     20                     21
                      A                      A                      A
 Frequencies --    177.3502               180.3575               191.7494
 Red. masses --     86.0174                82.6472                80.2551
 Frc consts  --      1.5940                 1.5840                 1.7386
 IR Inten    --      0.2693                 0.4347                 0.5774

 - Thermochemistry -
 -------------------
 Temperature   298.150 Kelvin.  Pressure   1.00000 Atm.
 Atom     1 has atomic number 83 and mass 208.98040

 Molecular mass:  1293.48874 amu.
 Principal axes and moments of inertia in atomic units:
                           1         2         3
     Eigenvalues --  ******************************
           X            0.99991  -0.01342  -0.00218
           Y            0.01347   0.99966   0.02214
           Z            0.00188  -0.02217   0.99975
 This molecule is an asymmetric top.
 Rotational symmetry number  1.
 Warning -- assumption of classical behavior for rotation
           may cause significant error
 Rotational temperatures (Kelvin)      0.00527     0.00435     0.00411
 Rotational constants (GHZ):           0.10971     0.09055     0.08572
 Zero-point vibrational energy      15222.9 (Joules/Mol)
                                    3.63837 (Kcal/Mol)
 Warning -- explicit consideration of  21 degrees of freedom as
           vibrations may cause significant error
 Vibrational temperatures:     52.70    75.66   108.31   120.99   125.25
          (Kelvin)            131.27   139.01   142.15   156.30   162.48
                              168.39   184.61   200.52   202.10   207.79
                              215.46   225.48   252.77   255.17   259.49
                              275.88

 Zero-point correction=                           0.005798 (Hartree/Particle)
 Thermal correction to Energy=                    0.023287
 Thermal correction to Enthalpy=                  0.024232
 Thermal correction to Gibbs Free Energy=        -0.048156
 Sum of electronic and zero-point Energies=          -7517.816329
 Sum of electronic and thermal Energies=             -7517.798840
 Sum of electronic and thermal Enthalpies=           -7517.797896
 Sum of electronic and thermal Free Energies=        -7517.870284

                     E (Thermal)             CV                S
                      KCal/Mol        Cal/Mol-Kelvin    Cal/Mol-Kelvin
 Total                   14.613             46.396            152.353
 Electronic               0.000              0.000              0.000
 Translational            0.889              2.981             47.349
 Rotational               0.889              2.981             37.177
 Vibrational             12.836             40.434             67.828
 Vibration     1          0.594              1.982              5.434
 Vibration     2          0.596              1.977              4.718
 Vibration     3          0.599              1.965              4.010
 Vibration     4          0.601              1.960              3.793
 Vibration     5          0.601              1.958              3.725
 Vibration     6          0.602              1.955              3.633
 Vibration     7          0.603              1.952              3.521
 Vibration     8          0.604              1.950              3.478
 Vibration     9          0.606              1.942              3.293
 Vibration    10          0.607              1.939              3.218
 Vibration    11          0.608              1.935              3.149
 Vibration    12          0.611              1.925              2.971
 Vibration    13          0.615              1.914              2.813
 Vibration    14          0.615              1.913              2.797
 Vibration    15          0.616              1.909              2.744
 Vibration    16          0.618              1.903              2.675
 Vibration    17          0.620              1.895              2.589
 Vibration    18          0.628              1.872              2.374
 Vibration    19          0.628              1.870              2.356
 Vibration    20          0.629              1.866              2.325
 Vibration    21          0.634              1.851              2.211

 Optimization completed.
    -- Stationary point found.
 Normal termination of Gaussian 09 at Tue Mar  6 15:43:54 2018.
