 Gaussian 09, Revision D.01,
 Gaussian 09:  ES64L-G09RevD.01 24-Apr-2013

 ----------------------------------------------------------------------
 #p PBE1PBE/Def2TZVP scf=(maxcycle=768) opt=(cartesian,maxcycle=512) fr
 eq
 ----------------------------------------------------------------------

 ---------------------
 01Final_coords.xyz_48
 ---------------------
 Symbolic Z-matrix:
 Charge =  0 Multiplicity = 1

 SCF Done:  E(RPBE1PBE) =  -7517.80810535     A.U. after   17 cycles
 SCF Done:  E(RPBE1PBE) =  -7517.81356966     A.U. after   13 cycles
 SCF Done:  E(RPBE1PBE) =  -7517.81492836     A.U. after   12 cycles
 SCF Done:  E(RPBE1PBE) =  -7517.81503690     A.U. after   11 cycles
 SCF Done:  E(RPBE1PBE) =  -7517.81509918     A.U. after   11 cycles
 SCF Done:  E(RPBE1PBE) =  -7517.81511937     A.U. after   11 cycles
 SCF Done:  E(RPBE1PBE) =  -7517.81513089     A.U. after   11 cycles
 SCF Done:  E(RPBE1PBE) =  -7517.81514464     A.U. after   12 cycles
 SCF Done:  E(RPBE1PBE) =  -7517.81516552     A.U. after   11 cycles
 SCF Done:  E(RPBE1PBE) =  -7517.81533101     A.U. after   13 cycles
 SCF Done:  E(RPBE1PBE) =  -7517.81669780     A.U. after   12 cycles
 SCF Done:  E(RPBE1PBE) =  -7517.81677024     A.U. after   12 cycles
 SCF Done:  E(RPBE1PBE) =  -7517.81689915     A.U. after    4 cycles
 SCF Done:  E(RPBE1PBE) =  -7517.81691018     A.U. after   11 cycles
 SCF Done:  E(RPBE1PBE) =  -7517.81691077     A.U. after    9 cycles
 SCF Done:  E(RPBE1PBE) =  -7517.81691064     A.U. after    9 cycles
 SCF Done:  E(RPBE1PBE) =  -7517.81691103     A.U. after    9 cycles
 SCF Done:  E(RPBE1PBE) =  -7517.81691104     A.U. after    9 cycles
 SCF Done:  E(RPBE1PBE) =  -7517.81691114     A.U. after    9 cycles
 Optimization completed.
    -- Stationary point found.
 Normal termination of Gaussian 09 at Wed Mar  7 00:52:16 2018.

 ----------------------------------------------------------------------
 #P Geom=AllCheck Guess=TCheck SCRF=Check GenChk RPBE1PBE/def2TZVP Freq
 ----------------------------------------------------------------------

 Structure from the checkpoint file:  "Isomer_48.chk"
 ---------------------
 01Final_coords.xyz_48
 ---------------------
 Charge =  0 Multiplicity = 1

                         Standard orientation:
 ---------------------------------------------------------------------
 Center     Atomic      Atomic             Coordinates (Angstroms)
 Number     Number       Type             X           Y           Z
 ---------------------------------------------------------------------
      1         83           0       -1.876873   -1.555065   -0.612200
      2         32           0        1.119233    0.115568    2.191216
      3         83           0       -1.333029    1.316270   -1.223524
      4         83           0        2.030052   -1.589413    0.044756
      5         50           0       -1.794941    0.217133    1.863311
      6         83           0        1.782539    1.262586   -0.738237
      7         50           0       -0.030026    2.526143    1.259669
      8         32           0       -0.216004   -2.063787    1.670380
      9         32           0        0.385056   -0.871067   -2.181125
 ---------------------------------------------------------------------

 SCF Done:  E(RPBE1PBE) =  -7517.81691114     A.U. after    1 cycles

 The electronic state is 1-A.
 Alpha  occ. eigenvalues -- -399.09709-399.09169-399.08563 -49.91337 -49.90797
 Alpha  occ. eigenvalues --  -49.90236 -44.39421 -44.39388 -44.39348 -44.38903
 Alpha  occ. eigenvalues --  -44.38832 -44.38807 -44.38311 -44.38284 -44.38250
 Alpha  occ. eigenvalues --   -6.27864  -6.27337  -6.26790  -6.02838  -6.02721
 Alpha  occ. eigenvalues --   -6.01440  -6.01377  -5.13444  -5.13286  -4.43330
 Alpha  occ. eigenvalues --   -4.43240  -4.43086  -4.42872  -4.42667  -4.42557
 Alpha  occ. eigenvalues --   -4.42263  -4.42149  -4.42054  -3.75100  -3.74997
 Alpha  occ. eigenvalues --   -3.74983  -3.74898  -3.74854  -3.74709  -3.73747
 Alpha  occ. eigenvalues --   -3.73709  -3.73637  -3.73555  -3.73370  -3.73291
 Alpha  occ. eigenvalues --   -3.46673  -3.46633  -3.46575  -3.46410  -3.46380
 Alpha  occ. eigenvalues --   -3.46243  -1.22809  -1.22807  -1.22638  -1.22616
 Alpha  occ. eigenvalues --   -1.22548  -1.22350  -1.22289  -1.22183  -1.22115
 Alpha  occ. eigenvalues --   -1.22024  -1.21735  -1.21699  -1.21601  -1.21498
 Alpha  occ. eigenvalues --   -1.21478  -1.09214  -1.08924  -1.08867  -1.08739
 Alpha  occ. eigenvalues --   -1.08669  -1.08613  -1.08547  -1.08455  -1.08343
 Alpha  occ. eigenvalues --   -1.08236  -1.07418  -1.07376  -1.07324  -1.07250
 Alpha  occ. eigenvalues --   -1.07208  -1.07114  -1.07060  -1.06998  -1.06973
 Alpha  occ. eigenvalues --   -1.06880  -1.03149  -1.02970  -1.02894  -1.02840
 Alpha  occ. eigenvalues --   -1.02743  -1.02715  -1.02658  -1.02545  -1.02376
 Alpha  occ. eigenvalues --   -1.02246  -0.68379  -0.62900  -0.60576  -0.55165
 Alpha  occ. eigenvalues --   -0.54908  -0.45574  -0.45448  -0.42863  -0.39759
 Alpha  occ. eigenvalues --   -0.29882  -0.28280  -0.27147  -0.25935  -0.25594
 Alpha  occ. eigenvalues --   -0.24989  -0.23757  -0.22838  -0.21845  -0.20978
 Alpha  occ. eigenvalues --   -0.20316
 Alpha virt. eigenvalues --   -0.07810  -0.07128  -0.06601  -0.06065  -0.05919
 Alpha virt. eigenvalues --   -0.05669  -0.05412  -0.04925  -0.03958  -0.02831
 Alpha virt. eigenvalues --   -0.02226  -0.01822  -0.00179   0.04923   0.05686

 Mulliken charges:
               1
     1  Bi   0.059303
     2  Ge  -0.065431
     3  Bi   0.097316
     4  Bi   0.058334
     5  Sn   0.067891
     6  Bi   0.122188
     7  Sn  -0.054776
     8  Ge  -0.135519
     9  Ge  -0.149305
 Sum of Mulliken charges =   0.00000

 Dipole moment (field-independent basis, Debye):
    X=             -0.0321    Y=              0.9435    Z=             -1.2756  Tot=              1.5869
 Quadrupole moment (field-independent basis, Debye-Ang):
   XX=           -215.4784   YY=           -215.1511   ZZ=           -223.7947
   XY=             -0.4151   XZ=             -0.7645   YZ=              0.8143

  Exact polarizability: 375.949  -0.018 388.558  -7.890   9.214 367.440
 Approx polarizability:1147.857   1.8301252.192 -23.492  28.3871164.724

                      1                      2                      3
                      A                      A                      A
 Frequencies --     33.8205                47.9566                77.5944
 Red. masses --    132.9949               143.1123               148.8100
 Frc consts  --      0.0896                 0.1939                 0.5279
 IR Inten    --      0.0188                 0.0530                 0.0923

                      4                      5                      6
                      A                      A                      A
 Frequencies --     82.1838                85.3293                93.8283
 Red. masses --    173.9142               145.4215               153.0267
 Frc consts  --      0.6921                 0.6238                 0.7938
 IR Inten    --      0.0217                 0.1796                 0.0963

                      7                      8                      9
                      A                      A                      A
 Frequencies --     98.5825               106.4675               113.6402
 Red. masses --    143.3651               118.1905               142.1102
 Frc consts  --      0.8209                 0.7893                 1.0813
 IR Inten    --      0.0280                 0.2928                 0.4161

                     10                     11                     12
                      A                      A                      A
 Frequencies --    116.3685               121.3286               124.3256
 Red. masses --     97.8753               135.4143               110.1059
 Frc consts  --      0.7809                 1.1745                 1.0027
 IR Inten    --      0.0782                 0.1360                 0.0608

                     13                     14                     15
                      A                      A                      A
 Frequencies --    130.8632               139.6075               142.0125
 Red. masses --    111.5030               100.9163               105.6594
 Frc consts  --      1.1250                 1.1589                 1.2555
 IR Inten    --      0.2455                 0.6777                 0.0565

                     16                     17                     18
                      A                      A                      A
 Frequencies --    152.7625               164.9974               167.9588
 Red. masses --     87.4566                90.7547                85.7514
 Frc consts  --      1.2025                 1.4557                 1.4253
 IR Inten    --      0.0848                 0.0871                 0.2504

                     19                     20                     21
                      A                      A                      A
 Frequencies --    172.5148               182.0491               201.2887
 Red. masses --     89.7002                87.0211                77.1649
 Frc consts  --      1.5729                 1.6992                 1.8421
 IR Inten    --      0.9723                 1.0534                 0.4401

 - Thermochemistry -
 -------------------
 Temperature   298.150 Kelvin.  Pressure   1.00000 Atm.
 Atom     1 has atomic number 83 and mass 208.98040

 Molecular mass:  1293.48874 amu.
 Principal axes and moments of inertia in atomic units:
                           1         2         3
     Eigenvalues --  ******************************
           X            0.99983  -0.00647  -0.01709
           Y            0.00688   0.99969   0.02386
           Z            0.01693  -0.02397   0.99957
 This molecule is an asymmetric top.
 Rotational symmetry number  1.
 Warning -- assumption of classical behavior for rotation
           may cause significant error
 Rotational temperatures (Kelvin)      0.00498     0.00473     0.00406
 Rotational constants (GHZ):           0.10374     0.09846     0.08453
 Zero-point vibrational energy      15285.2 (Joules/Mol)
                                    3.65324 (Kcal/Mol)
 Warning -- explicit consideration of  21 degrees of freedom as
           vibrations may cause significant error
 Vibrational temperatures:     48.66    69.00   111.64   118.24   122.77
          (Kelvin)            135.00   141.84   153.18   163.50   167.43
                              174.56   178.88   188.28   200.86   204.32
                              219.79   237.39   241.65   248.21   261.93
                              289.61

 Zero-point correction=                           0.005822 (Hartree/Particle)
 Thermal correction to Energy=                    0.023294
 Thermal correction to Enthalpy=                  0.024238
 Thermal correction to Gibbs Free Energy=        -0.048157
 Sum of electronic and zero-point Energies=          -7517.811089
 Sum of electronic and thermal Energies=             -7517.793617
 Sum of electronic and thermal Enthalpies=           -7517.792673
 Sum of electronic and thermal Free Energies=        -7517.865068

                     E (Thermal)             CV                S
                      KCal/Mol        Cal/Mol-Kelvin    Cal/Mol-Kelvin
 Total                   14.617             46.382            152.370
 Electronic               0.000              0.000              0.000
 Translational            0.889              2.981             47.349
 Rotational               0.889              2.981             37.163
 Vibrational             12.840             40.421             67.858
 Vibration     1          0.594              1.983              5.592
 Vibration     2          0.595              1.978              4.900
 Vibration     3          0.599              1.964              3.951
 Vibration     4          0.600              1.961              3.838
 Vibration     5          0.601              1.959              3.764
 Vibration     6          0.603              1.954              3.579
 Vibration     7          0.604              1.950              3.482
 Vibration     8          0.605              1.944              3.332
 Vibration     9          0.607              1.938              3.206
 Vibration    10          0.608              1.936              3.160
 Vibration    11          0.609              1.931              3.079
 Vibration    12          0.610              1.929              3.032
 Vibration    13          0.612              1.922              2.933
 Vibration    14          0.615              1.914              2.809
 Vibration    15          0.615              1.911              2.777
 Vibration    16          0.619              1.900              2.638
 Vibration    17          0.623              1.885              2.492
 Vibration    18          0.625              1.882              2.458
 Vibration    19          0.626              1.876              2.408
 Vibration    20          0.630              1.864              2.307
 Vibration    21          0.638              1.838              2.121

 Optimization completed.
    -- Stationary point found.
 Normal termination of Gaussian 09 at Wed Mar  7 01:49:44 2018.
