 Gaussian 09, Revision D.01,
 Gaussian 09:  ES64L-G09RevD.01 24-Apr-2013

 ----------------------------------------------------------------------
 #p PBE1PBE/Def2TZVP scf=(maxcycle=768) opt=(cartesian,maxcycle=512) fr
 eq
 ----------------------------------------------------------------------

 ---------------------
 01Final_coords.xyz_19
 ---------------------
 Symbolic Z-matrix:
 Charge =  0 Multiplicity = 1

 SCF Done:  E(RPBE1PBE) =  -7517.81379543     A.U. after   17 cycles
 SCF Done:  E(RPBE1PBE) =  -7517.81950331     A.U. after   13 cycles
 SCF Done:  E(RPBE1PBE) =  -7517.82095425     A.U. after   12 cycles
 SCF Done:  E(RPBE1PBE) =  -7517.82116157     A.U. after   12 cycles
 SCF Done:  E(RPBE1PBE) =  -7517.82132912     A.U. after   12 cycles
 SCF Done:  E(RPBE1PBE) =  -7517.82136366     A.U. after   11 cycles
 SCF Done:  E(RPBE1PBE) =  -7517.82137155     A.U. after    9 cycles
 SCF Done:  E(RPBE1PBE) =  -7517.82137413     A.U. after    9 cycles
 Optimization completed.
    -- Stationary point found.
 Normal termination of Gaussian 09 at Tue Mar  6 13:35:26 2018.

 ----------------------------------------------------------------------
 #P Geom=AllCheck Guess=TCheck SCRF=Check GenChk RPBE1PBE/def2TZVP Freq
 ----------------------------------------------------------------------

 Structure from the checkpoint file:  "Isomer_19.chk"
 ---------------------
 01Final_coords.xyz_19
 ---------------------
 Charge =  0 Multiplicity = 1

                         Standard orientation:
 ---------------------------------------------------------------------
 Center     Atomic      Atomic             Coordinates (Angstroms)
 Number     Number       Type             X           Y           Z
 ---------------------------------------------------------------------
      1         32           0       -0.693410   -1.716949    1.567763
      2         83           0       -1.929126   -1.415394   -0.967232
      3         32           0        0.725334   -2.209990   -0.945950
      4         83           0       -1.997851    0.792140    1.116791
      5         32           0        0.009584   -0.034837   -2.511326
      6         83           0       -0.077352    2.214367   -0.719714
      7         50           0        0.827225    1.015353    2.032249
      8         83           0        2.253487    0.312396   -0.810921
      9         50           0        2.052606   -1.639641    1.469626
 ---------------------------------------------------------------------

 SCF Done:  E(RPBE1PBE) =  -7517.82137413     A.U. after    1 cycles

 The electronic state is 1-A.
 Alpha  occ. eigenvalues -- -399.09501-399.09443-399.08972 -49.91126 -49.91070
 Alpha  occ. eigenvalues --  -49.90606 -44.39210 -44.39171 -44.39153 -44.39148
 Alpha  occ. eigenvalues --  -44.39127 -44.39082 -44.38676 -44.38665 -44.38623
 Alpha  occ. eigenvalues --   -6.27669  -6.27608  -6.27141  -6.02378  -6.02005
 Alpha  occ. eigenvalues --   -6.01727  -6.01476  -5.13785  -5.13036  -4.43137
 Alpha  occ. eigenvalues --   -4.43070  -4.43011  -4.42997  -4.42939  -4.42839
 Alpha  occ. eigenvalues --   -4.42581  -4.42527  -4.42385  -3.74679  -3.74502
 Alpha  occ. eigenvalues --   -3.74391  -3.74302  -3.74084  -3.74052  -3.74047
 Alpha  occ. eigenvalues --   -3.73949  -3.73827  -3.73599  -3.73594  -3.73450
 Alpha  occ. eigenvalues --   -3.47036  -3.46932  -3.46741  -3.46302  -3.46185
 Alpha  occ. eigenvalues --   -3.45987  -1.22628  -1.22597  -1.22563  -1.22555
 Alpha  occ. eigenvalues --   -1.22504  -1.22454  -1.22409  -1.22366  -1.22337
 Alpha  occ. eigenvalues --   -1.22294  -1.22065  -1.22039  -1.21956  -1.21867
 Alpha  occ. eigenvalues --   -1.21843  -1.08778  -1.08433  -1.08386  -1.08280
 Alpha  occ. eigenvalues --   -1.08112  -1.08090  -1.08030  -1.08003  -1.07933
 Alpha  occ. eigenvalues --   -1.07786  -1.07564  -1.07437  -1.07406  -1.07375
 Alpha  occ. eigenvalues --   -1.07304  -1.07198  -1.07147  -1.07087  -1.07047
 Alpha  occ. eigenvalues --   -1.06979  -1.03276  -1.03233  -1.03176  -1.03091
 Alpha  occ. eigenvalues --   -1.02991  -1.02526  -1.02482  -1.02380  -1.02202
 Alpha  occ. eigenvalues --   -1.02160  -0.68105  -0.63046  -0.60802  -0.56676
 Alpha  occ. eigenvalues --   -0.51804  -0.47736  -0.43778  -0.43194  -0.40009
 Alpha  occ. eigenvalues --   -0.29837  -0.27991  -0.27367  -0.26185  -0.24996
 Alpha  occ. eigenvalues --   -0.24203  -0.23588  -0.23505  -0.22685  -0.20793
 Alpha  occ. eigenvalues --   -0.20135
 Alpha virt. eigenvalues --   -0.07491  -0.06981  -0.06778  -0.06016  -0.05546
 Alpha virt. eigenvalues --   -0.05390  -0.04419  -0.04192  -0.03680  -0.03563
 Alpha virt. eigenvalues --   -0.02760  -0.01738  -0.01171   0.04827   0.05333

 Mulliken charges:
               1
     1  Ge  -0.053835
     2  Bi   0.055922
     3  Ge  -0.026111
     4  Bi   0.004243
     5  Ge  -0.133079
     6  Bi   0.032337
     7  Sn   0.048496
     8  Bi   0.114047
     9  Sn  -0.042021
 Sum of Mulliken charges =   0.00000

 Dipole moment (field-independent basis, Debye):
    X=             -0.3518    Y=              1.4158    Z=              0.2599  Tot=              1.4818
 Quadrupole moment (field-independent basis, Debye-Ang):
   XX=           -211.5351   YY=           -219.9447   ZZ=           -222.1988
   XY=             -0.5462   XZ=              0.8787   YZ=             -0.2777

  Exact polarizability: 384.541  -7.838 374.880  11.807  -0.709 373.461
 Approx polarizability:1194.098 -38.1421156.608  46.652 -11.0151179.008

                      1                      2                      3
                      A                      A                      A
 Frequencies --     44.3429                59.8146                73.0176
 Red. masses --    160.2015               143.9863               126.9151
 Frc consts  --      0.1856                 0.3035                 0.3987
 IR Inten    --      0.0282                 0.0135                 0.0244

                      4                      5                      6
                      A                      A                      A
 Frequencies --     84.1883                89.1839                93.8665
 Red. masses --    145.5524               165.8171               130.9460
 Frc consts  --      0.6078                 0.7771                 0.6798
 IR Inten    --      0.0408                 0.1343                 0.0780

                      7                      8                      9
                      A                      A                      A
 Frequencies --    104.5362               105.0918               108.6519
 Red. masses --    111.6477               131.6723               163.0807
 Frc consts  --      0.7188                 0.8568                 1.1343
 IR Inten    --      0.0198                 0.4165                 0.0182

                     10                     11                     12
                      A                      A                      A
 Frequencies --    110.9074               117.6327               119.8518
 Red. masses --    124.5835               109.1347               128.1015
 Frc consts  --      0.9029                 0.8898                 1.0842
 IR Inten    --      0.2283                 0.3287                 0.1000

                     13                     14                     15
                      A                      A                      A
 Frequencies --    135.5333               142.5326               144.5669
 Red. masses --    112.2417               112.5909               106.3713
 Frc consts  --      1.2148                 1.3477                 1.3098
 IR Inten    --      0.2981                 0.2083                 0.1871

                     16                     17                     18
                      A                      A                      A
 Frequencies --    152.1015               153.5955               167.9090
 Red. masses --     85.8145                79.1484                86.0986
 Frc consts  --      1.1697                 1.1001                 1.4302
 IR Inten    --      0.2222                 0.0229                 0.1676

                     19                     20                     21
                      A                      A                      A
 Frequencies --    178.1862               182.1631               196.1375
 Red. masses --     84.2860                83.6823                86.6693
 Frc consts  --      1.5767                 1.6361                 1.9644
 IR Inten    --      0.1606                 0.3603                 1.4405

 - Thermochemistry -
 -------------------
 Temperature   298.150 Kelvin.  Pressure   1.00000 Atm.
 Atom     1 has atomic number 32 and mass  73.92118

 Molecular mass:  1293.48874 amu.
 Principal axes and moments of inertia in atomic units:
                           1         2         3
     Eigenvalues --  ******************************
           X            0.99923  -0.03225   0.02242
           Y            0.03261   0.99935  -0.01556
           Z           -0.02191   0.01628   0.99963
 This molecule is an asymmetric top.
 Rotational symmetry number  1.
 Warning -- assumption of classical behavior for rotation
           may cause significant error
 Rotational temperatures (Kelvin)      0.00509     0.00442     0.00408
 Rotational constants (GHZ):           0.10600     0.09216     0.08511
 Zero-point vibrational energy      15335.0 (Joules/Mol)
                                    3.66515 (Kcal/Mol)
 Warning -- explicit consideration of  21 degrees of freedom as
           vibrations may cause significant error
 Vibrational temperatures:     63.80    86.06   105.06   121.13   128.32
          (Kelvin)            135.05   150.40   151.20   156.33   159.57
                              169.25   172.44   195.00   205.07   208.00
                              218.84   220.99   241.58   256.37   262.09
                              282.20

 Zero-point correction=                           0.005841 (Hartree/Particle)
 Thermal correction to Energy=                    0.023291
 Thermal correction to Enthalpy=                  0.024235
 Thermal correction to Gibbs Free Energy=        -0.047809
 Sum of electronic and zero-point Energies=          -7517.815533
 Sum of electronic and thermal Energies=             -7517.798084
 Sum of electronic and thermal Enthalpies=           -7517.797139
 Sum of electronic and thermal Free Energies=        -7517.869184

                     E (Thermal)             CV                S
                      KCal/Mol        Cal/Mol-Kelvin    Cal/Mol-Kelvin
 Total                   14.615             46.389            151.630
 Electronic               0.000              0.000              0.000
 Translational            0.889              2.981             47.349
 Rotational               0.889              2.981             37.201
 Vibrational             12.838             40.428             67.081
 Vibration     1          0.595              1.980              5.055
 Vibration     2          0.597              1.973              4.463
 Vibration     3          0.599              1.967              4.070
 Vibration     4          0.601              1.960              3.791
 Vibration     5          0.602              1.957              3.678
 Vibration     6          0.603              1.954              3.578
 Vibration     7          0.605              1.946              3.368
 Vibration     8          0.605              1.945              3.358
 Vibration     9          0.606              1.942              3.293
 Vibration    10          0.607              1.940              3.253
 Vibration    11          0.608              1.935              3.139
 Vibration    12          0.609              1.933              3.103
 Vibration    13          0.613              1.918              2.866
 Vibration    14          0.616              1.911              2.770
 Vibration    15          0.616              1.909              2.743
 Vibration    16          0.619              1.900              2.646
 Vibration    17          0.619              1.899              2.627
 Vibration    18          0.625              1.882              2.459
 Vibration    19          0.629              1.869              2.347
 Vibration    20          0.630              1.864              2.306
 Vibration    21          0.636              1.845              2.169

 Normal termination of Gaussian 09 at Tue Mar  6 14:32:24 2018.
