 Gaussian 09, Revision D.01,
 Gaussian 09:  ES64L-G09RevD.01 24-Apr-2013

 ----------------------------------------------------------------------
 #p PBE1PBE/Def2TZVP scf=(maxcycle=768) opt=(cartesian,maxcycle=512) fr
 eq
 ----------------------------------------------------------------------

 ---------------------
 01Final_coords.xyz_14
 ---------------------
 Symbolic Z-matrix:
 Charge =  0 Multiplicity = 1

 SCF Done:  E(RPBE1PBE) =  -7517.81682729     A.U. after   17 cycles
 SCF Done:  E(RPBE1PBE) =  -7517.82259437     A.U. after   12 cycles
 SCF Done:  E(RPBE1PBE) =  -7517.82401679     A.U. after   12 cycles
 SCF Done:  E(RPBE1PBE) =  -7517.82414896     A.U. after   11 cycles
 SCF Done:  E(RPBE1PBE) =  -7517.82421346     A.U. after   12 cycles
 SCF Done:  E(RPBE1PBE) =  -7517.82425106     A.U. after   10 cycles
 SCF Done:  E(RPBE1PBE) =  -7517.82426015     A.U. after    9 cycles
 SCF Done:  E(RPBE1PBE) =  -7517.82426300     A.U. after    9 cycles
 SCF Done:  E(RPBE1PBE) =  -7517.82426476     A.U. after    9 cycles
 Optimization completed.
    -- Stationary point found.
 Normal termination of Gaussian 09 at Tue Mar  6 13:43:38 2018.

 ----------------------------------------------------------------------
 #P Geom=AllCheck Guess=TCheck SCRF=Check GenChk RPBE1PBE/def2TZVP Freq
 ----------------------------------------------------------------------

 Structure from the checkpoint file:  "Isomer_14.chk"
 ---------------------
 01Final_coords.xyz_14
 ---------------------
 Charge =  0 Multiplicity = 1

                         Standard orientation:
 ---------------------------------------------------------------------
 Center     Atomic      Atomic             Coordinates (Angstroms)
 Number     Number       Type             X           Y           Z
 ---------------------------------------------------------------------
      1         83           0        2.373824   -0.743326   -0.131150
      2         32           0        0.733557   -2.143345   -1.859567
      3         32           0        0.498580    0.455389   -2.306774
      4         32           0        0.083346   -2.367862    0.746185
      5         50           0       -1.830333   -1.359378   -1.390053
      6         83           0       -1.922334   -0.488092    1.483840
      7         50           0        0.882128   -0.007887    2.378194
      8         83           0       -1.603180    1.586827   -0.737081
      9         83           0        1.215724    2.031934    0.107739
 ---------------------------------------------------------------------

 SCF Done:  E(RPBE1PBE) =  -7517.82426476     A.U. after    1 cycles

 The electronic state is 1-A.
 Alpha  occ. eigenvalues -- -399.10025-399.09479-399.08737 -49.91616 -49.91091
 Alpha  occ. eigenvalues --  -49.90429 -44.39714 -44.39678 -44.39615 -44.39175
 Alpha  occ. eigenvalues --  -44.39145 -44.39106 -44.38499 -44.38485 -44.38433
 Alpha  occ. eigenvalues --   -6.28140  -6.27620  -6.26990  -6.02602  -6.02108
 Alpha  occ. eigenvalues --   -6.01763  -6.01234  -5.13597  -5.13142  -4.43634
 Alpha  occ. eigenvalues --   -4.43530  -4.43318  -4.43087  -4.42986  -4.42859
 Alpha  occ. eigenvalues --   -4.42455  -4.42386  -4.42223  -3.74906  -3.74722
 Alpha  occ. eigenvalues --   -3.74624  -3.74403  -3.74189  -3.74156  -3.74068
 Alpha  occ. eigenvalues --   -3.73989  -3.73644  -3.73559  -3.73343  -3.73214
 Alpha  occ. eigenvalues --   -3.46841  -3.46769  -3.46552  -3.46345  -3.46295
 Alpha  occ. eigenvalues --   -3.46136  -1.23120  -1.23092  -1.22916  -1.22873
 Alpha  occ. eigenvalues --   -1.22819  -1.22559  -1.22538  -1.22454  -1.22387
 Alpha  occ. eigenvalues --   -1.22334  -1.21944  -1.21903  -1.21821  -1.21700
 Alpha  occ. eigenvalues --   -1.21690  -1.08948  -1.08600  -1.08572  -1.08473
 Alpha  occ. eigenvalues --   -1.08355  -1.08260  -1.08154  -1.08100  -1.07968
 Alpha  occ. eigenvalues --   -1.07828  -1.07575  -1.07460  -1.07337  -1.07233
 Alpha  occ. eigenvalues --   -1.07208  -1.07189  -1.07114  -1.06936  -1.06876
 Alpha  occ. eigenvalues --   -1.06793  -1.03083  -1.03077  -1.02921  -1.02879
 Alpha  occ. eigenvalues --   -1.02779  -1.02583  -1.02564  -1.02431  -1.02360
 Alpha  occ. eigenvalues --   -1.02322  -0.68033  -0.62952  -0.60804  -0.56882
 Alpha  occ. eigenvalues --   -0.52461  -0.47706  -0.43938  -0.42068  -0.40805
 Alpha  occ. eigenvalues --   -0.29791  -0.27956  -0.27295  -0.26341  -0.25271
 Alpha  occ. eigenvalues --   -0.24444  -0.23623  -0.23065  -0.22650  -0.21191
 Alpha  occ. eigenvalues --   -0.20174
 Alpha virt. eigenvalues --   -0.07573  -0.07020  -0.06558  -0.06147  -0.05766
 Alpha virt. eigenvalues --   -0.05265  -0.04982  -0.04150  -0.03895  -0.03537
 Alpha virt. eigenvalues --   -0.02550  -0.02135  -0.00700   0.04344   0.06063

 Mulliken charges:
               1
     1  Bi   0.135632
     2  Ge  -0.140642
     3  Ge  -0.056747
     4  Ge  -0.072515
     5  Sn   0.091494
     6  Bi   0.010801
     7  Sn  -0.009376
     8  Bi   0.035732
     9  Bi   0.005621
 Sum of Mulliken charges =   0.00000

 Dipole moment (field-independent basis, Debye):
    X=             -0.1384    Y=              1.5801    Z=              0.6767  Tot=              1.7244
 Quadrupole moment (field-independent basis, Debye-Ang):
   XX=           -212.7007   YY=           -219.4983   ZZ=           -222.5791
   XY=             -0.6976   XZ=              0.7952   YZ=              1.2153

  Exact polarizability: 382.877   5.779 369.658   8.901   8.509 380.228
 Approx polarizability:1159.606   7.9521160.489   6.311  47.1851189.313

                      1                      2                      3
                      A                      A                      A
 Frequencies --     40.2540                64.6642                78.2643
 Red. masses --    170.7729               113.5946               143.6905
 Frc consts  --      0.1630                 0.2799                 0.5186
 IR Inten    --      0.0379                 0.1305                 0.0803

                      4                      5                      6
                      A                      A                      A
 Frequencies --     80.0877                90.7261                96.7294
 Red. masses --    143.2721               158.5555               122.0206
 Frc consts  --      0.5414                 0.7689                 0.6727
 IR Inten    --      0.0668                 0.0039                 0.0825

                      7                      8                      9
                      A                      A                      A
 Frequencies --     97.9789               104.9776               106.8067
 Red. masses --    148.9015               103.6346               140.8078
 Frc consts  --      0.8422                 0.6729                 0.9464
 IR Inten    --      0.0603                 0.0953                 0.1290

                     10                     11                     12
                      A                      A                      A
 Frequencies --    109.5059               120.7838               125.2876
 Red. masses --    133.7797               153.5157               105.5480
 Frc consts  --      0.9452                 1.3195                 0.9761
 IR Inten    --      0.0455                 0.2438                 0.1275

                     13                     14                     15
                      A                      A                      A
 Frequencies --    137.6446               140.4347               141.6255
 Red. masses --    124.9037               102.9148               100.8678
 Frc consts  --      1.3943                 1.1959                 1.1920
 IR Inten    --      0.3055                 0.0903                 0.2565

                     16                     17                     18
                      A                      A                      A
 Frequencies --    153.0774               161.5868               164.0301
 Red. masses --    115.8503                83.5184                80.6499
 Frc consts  --      1.5994                 1.2848                 1.2785
 IR Inten    --      1.0661                 0.0977                 0.3109

                     19                     20                     21
                      A                      A                      A
 Frequencies --    171.5039               185.4197               199.7206
 Red. masses --     81.0633                85.4585                79.0234
 Frc consts  --      1.4048                 1.7311                 1.8572
 IR Inten    --      0.0599                 0.5523                 0.8045

 - Thermochemistry -
 -------------------
 Temperature   298.150 Kelvin.  Pressure   1.00000 Atm.
 Atom     1 has atomic number 83 and mass 208.98040

 Molecular mass:  1293.48874 amu.
 Principal axes and moments of inertia in atomic units:
                           1         2         3
     Eigenvalues --  ******************************
           X            0.99978   0.01030   0.01808
           Y           -0.01139   0.99804   0.06158
           Z           -0.01741  -0.06178   0.99794
 This molecule is an asymmetric top.
 Rotational symmetry number  1.
 Warning -- assumption of classical behavior for rotation
           may cause significant error
 Rotational temperatures (Kelvin)      0.00516     0.00441     0.00412
 Rotational constants (GHZ):           0.10743     0.09182     0.08590
 Zero-point vibrational energy      15378.7 (Joules/Mol)
                                    3.67559 (Kcal/Mol)
 Warning -- explicit consideration of  21 degrees of freedom as
           vibrations may cause significant error
 Vibrational temperatures:     57.92    93.04   112.60   115.23   130.53
          (Kelvin)            139.17   140.97   151.04   153.67   157.55
                              173.78   180.26   198.04   202.05   203.77
                              220.24   232.49   236.00   246.76   266.78
                              287.35

 Zero-point correction=                           0.005857 (Hartree/Particle)
 Thermal correction to Energy=                    0.023295
 Thermal correction to Enthalpy=                  0.024239
 Thermal correction to Gibbs Free Energy=        -0.047766
 Sum of electronic and zero-point Energies=          -7517.818407
 Sum of electronic and thermal Energies=             -7517.800970
 Sum of electronic and thermal Enthalpies=           -7517.800026
 Sum of electronic and thermal Free Energies=        -7517.872031

                     E (Thermal)             CV                S
                      KCal/Mol        Cal/Mol-Kelvin    Cal/Mol-Kelvin
 Total                   14.618             46.382            151.547
 Electronic               0.000              0.000              0.000
 Translational            0.889              2.981             47.349
 Rotational               0.889              2.981             37.182
 Vibrational             12.840             40.420             67.016
 Vibration     1          0.594              1.981              5.247
 Vibration     2          0.597              1.971              4.310
 Vibration     3          0.600              1.964              3.934
 Vibration     4          0.600              1.963              3.889
 Vibration     5          0.602              1.956              3.644
 Vibration     6          0.603              1.952              3.519
 Vibration     7          0.603              1.951              3.494
 Vibration     8          0.605              1.945              3.360
 Vibration     9          0.606              1.944              3.326
 Vibration    10          0.606              1.942              3.278
 Vibration    11          0.609              1.932              3.088
 Vibration    12          0.610              1.928              3.017
 Vibration    13          0.614              1.916              2.836
 Vibration    14          0.615              1.913              2.798
 Vibration    15          0.615              1.912              2.782
 Vibration    16          0.619              1.899              2.634
 Vibration    17          0.622              1.890              2.531
 Vibration    18          0.623              1.887              2.503
 Vibration    19          0.626              1.878              2.419
 Vibration    20          0.631              1.860              2.273
 Vibration    21          0.638              1.840              2.136

 Normal termination of Gaussian 09 at Tue Mar  6 14:39:51 2018.
