 Gaussian 09, Revision D.01,
 Gaussian 09:  ES64L-G09RevD.01 24-Apr-2013

 ----------------------------------------------------------------------
 #p PBE1PBE/Def2TZVP scf=(maxcycle=768) opt=(cartesian,maxcycle=512) fr
 eq
 ----------------------------------------------------------------------

 ---------------------
 01Final_coords.xyz_21
 ---------------------
 Symbolic Z-matrix:
 Charge =  0 Multiplicity = 1

 SCF Done:  E(RPBE1PBE) =  -7517.81775192     A.U. after   18 cycles
 SCF Done:  E(RPBE1PBE) =  -7517.82406702     A.U. after   12 cycles
 SCF Done:  E(RPBE1PBE) =  -7517.82569452     A.U. after   12 cycles
 SCF Done:  E(RPBE1PBE) =  -7517.82579512     A.U. after   11 cycles
 SCF Done:  E(RPBE1PBE) =  -7517.82584046     A.U. after   10 cycles
 SCF Done:  E(RPBE1PBE) =  -7517.82585554     A.U. after   10 cycles
 SCF Done:  E(RPBE1PBE) =  -7517.82585892     A.U. after    9 cycles
 Optimization completed.
    -- Stationary point found.
 Normal termination of Gaussian 09 at Tue Mar  6 13:46:53 2018.

 ----------------------------------------------------------------------
 #P Geom=AllCheck Guess=TCheck SCRF=Check GenChk RPBE1PBE/def2TZVP Freq
 ----------------------------------------------------------------------

 Structure from the checkpoint file:  "Isomer_21.chk"
 ---------------------
 01Final_coords.xyz_21
 ---------------------
 Charge =  0 Multiplicity = 1

                         Standard orientation:
 ---------------------------------------------------------------------
 Center     Atomic      Atomic             Coordinates (Angstroms)
 Number     Number       Type             X           Y           Z
 ---------------------------------------------------------------------
      1         32           0       -0.889040    2.292168   -1.530999
      2         83           0       -1.648326   -0.419244   -1.488105
      3         83           0       -1.323668   -1.319489    1.425438
      4         50           0        1.346637    0.732179   -2.022668
      5         83           0        0.803148   -1.999243   -0.595327
      6         83           0        2.432677    0.169956    0.725423
      7         32           0        0.802487    2.455053    0.459647
      8         32           0        0.292950    0.788957    2.487463
      9         50           0       -1.916692    1.647580    1.004425
 ---------------------------------------------------------------------

 SCF Done:  E(RPBE1PBE) =  -7517.82585892     A.U. after    3 cycles

 The electronic state is 1-A.
 Alpha  occ. eigenvalues -- -399.08710-399.08707-399.08365 -49.90393 -49.90363
 Alpha  occ. eigenvalues --  -49.90021 -44.38473 -44.38451 -44.38440 -44.38405
 Alpha  occ. eigenvalues --  -44.38398 -44.38378 -44.38098 -44.38066 -44.38042
 Alpha  occ. eigenvalues --   -6.26948  -6.26919  -6.26565  -6.02912  -6.02704
 Alpha  occ. eigenvalues --   -6.01913  -6.01462  -5.13915  -5.13362  -4.42429
 Alpha  occ. eigenvalues --   -4.42414  -4.42324  -4.42277  -4.42180  -4.42164
 Alpha  occ. eigenvalues --   -4.42032  -4.41909  -4.41840  -3.75214  -3.75109
 Alpha  occ. eigenvalues --   -3.74974  -3.74842  -3.74833  -3.74719  -3.74255
 Alpha  occ. eigenvalues --   -3.74111  -3.73810  -3.73792  -3.73555  -3.73451
 Alpha  occ. eigenvalues --   -3.47236  -3.47016  -3.46853  -3.46705  -3.46446
 Alpha  occ. eigenvalues --   -3.46311  -1.22016  -1.21949  -1.21932  -1.21861
 Alpha  occ. eigenvalues --   -1.21851  -1.21796  -1.21744  -1.21641  -1.21603
 Alpha  occ. eigenvalues --   -1.21518  -1.21477  -1.21449  -1.21373  -1.21277
 Alpha  occ. eigenvalues --   -1.21248  -1.09368  -1.09178  -1.08905  -1.08833
 Alpha  occ. eigenvalues --   -1.08642  -1.08576  -1.08522  -1.08441  -1.08339
 Alpha  occ. eigenvalues --   -1.08272  -1.07834  -1.07690  -1.07524  -1.07472
 Alpha  occ. eigenvalues --   -1.07447  -1.07414  -1.07312  -1.07188  -1.07114
 Alpha  occ. eigenvalues --   -1.07019  -1.03435  -1.03385  -1.03243  -1.03118
 Alpha  occ. eigenvalues --   -1.03047  -1.02930  -1.02855  -1.02742  -1.02602
 Alpha  occ. eigenvalues --   -1.02515  -0.68414  -0.62269  -0.59436  -0.59016
 Alpha  occ. eigenvalues --   -0.52929  -0.48345  -0.43555  -0.41976  -0.39856
 Alpha  occ. eigenvalues --   -0.30004  -0.28287  -0.27120  -0.26317  -0.25651
 Alpha  occ. eigenvalues --   -0.24803  -0.23452  -0.22549  -0.22063  -0.21191
 Alpha  occ. eigenvalues --   -0.20662
 Alpha virt. eigenvalues --   -0.07870  -0.07439  -0.07081  -0.06843  -0.05814
 Alpha virt. eigenvalues --   -0.05324  -0.04875  -0.04321  -0.03502  -0.02500
 Alpha virt. eigenvalues --   -0.01930  -0.01599  -0.00910   0.04924   0.05678

 Mulliken charges:
               1
     1  Ge  -0.175065
     2  Bi   0.116294
     3  Bi   0.039134
     4  Sn   0.065849
     5  Bi   0.011092
     6  Bi   0.041646
     7  Ge  -0.034562
     8  Ge  -0.137083
     9  Sn   0.072695
 Sum of Mulliken charges =   0.00000

 Dipole moment (field-independent basis, Debye):
    X=             -0.0568    Y=             -2.5439    Z=             -0.8234  Tot=              2.6745
 Quadrupole moment (field-independent basis, Debye-Ang):
   XX=           -214.8476   YY=           -219.8548   ZZ=           -221.1215
   XY=             -1.0743   XZ=             -0.2901   YZ=             -0.4544

  Exact polarizability: 380.732  -6.128 374.608  -9.981  -1.646 373.703
 Approx polarizability:1153.143 -33.6671186.465 -12.008 -24.4911175.571

                      1                      2                      3
                      A                      A                      A
 Frequencies --     41.0778                66.8075                74.3686
 Red. masses --    162.1145               123.4425               162.6345
 Frc consts  --      0.1612                 0.3246                 0.5300
 IR Inten    --      0.0077                 0.0763                 0.0349

                      4                      5                      6
                      A                      A                      A
 Frequencies --     83.1749                90.9772                96.7852
 Red. masses --    150.0122               159.3900               128.4160
 Frc consts  --      0.6115                 0.7773                 0.7087
 IR Inten    --      0.0333                 0.0697                 0.0040

                      7                      8                      9
                      A                      A                      A
 Frequencies --     99.5460               101.5737               111.2173
 Red. masses --    153.0210               178.9450               115.2655
 Frc consts  --      0.8934                 1.0878                 0.8400
 IR Inten    --      0.2150                 0.1006                 0.0757

                     10                     11                     12
                      A                      A                      A
 Frequencies --    111.5583               119.7762               123.1402
 Red. masses --    131.1540               115.5725               101.2104
 Frc consts  --      0.9617                 0.9769                 0.9042
 IR Inten    --      0.1754                 0.2543                 0.0289

                     13                     14                     15
                      A                      A                      A
 Frequencies --    135.3952               138.6309               148.8013
 Red. masses --    137.8122               138.5018                83.9438
 Frc consts  --      1.4885                 1.5683                 1.0951
 IR Inten    --      0.0990                 0.6096                 0.1105

                     16                     17                     18
                      A                      A                      A
 Frequencies --    150.5696               160.0038               172.7380
 Red. masses --     87.1461                82.8102                85.3334
 Frc consts  --      1.1641                 1.2491                 1.5002
 IR Inten    --      0.0682                 0.5780                 0.8258

                     19                     20                     21
                      A                      A                      A
 Frequencies --    178.3821               184.2295               204.3261
 Red. masses --     86.4231                79.7193                77.2451
 Frc consts  --      1.6203                 1.5942                 1.9001
 IR Inten    --      0.4352                 0.5484                 0.7824

 - Thermochemistry -
 -------------------
 Temperature   298.150 Kelvin.  Pressure   1.00000 Atm.
 Atom     1 has atomic number 32 and mass  73.92118

 Molecular mass:  1293.48874 amu.
 Principal axes and moments of inertia in atomic units:
                           1         2         3
     Eigenvalues --  ******************************
           X            0.99919  -0.02929  -0.02775
           Y            0.02917   0.99956  -0.00478
           Z            0.02788   0.00397   0.99960
 This molecule is an asymmetric top.
 Rotational symmetry number  1.
 Warning -- assumption of classical behavior for rotation
           may cause significant error
 Rotational temperatures (Kelvin)      0.00503     0.00450     0.00436
 Rotational constants (GHZ):           0.10484     0.09386     0.09076
 Zero-point vibrational energy      15510.1 (Joules/Mol)
                                    3.70699 (Kcal/Mol)
 Warning -- explicit consideration of  21 degrees of freedom as
           vibrations may cause significant error
 Vibrational temperatures:     59.10    96.12   107.00   119.67   130.90
          (Kelvin)            139.25   143.22   146.14   160.02   160.51
                              172.33   177.17   194.80   199.46   214.09
                              216.64   230.21   248.53   256.65   265.06
                              293.98

 Zero-point correction=                           0.005907 (Hartree/Particle)
 Thermal correction to Energy=                    0.023307
 Thermal correction to Enthalpy=                  0.024251
 Thermal correction to Gibbs Free Energy=        -0.047583
 Sum of electronic and zero-point Energies=          -7517.819951
 Sum of electronic and thermal Energies=             -7517.802552
 Sum of electronic and thermal Enthalpies=           -7517.801608
 Sum of electronic and thermal Free Energies=        -7517.873442

                     E (Thermal)             CV                S
                      KCal/Mol        Cal/Mol-Kelvin    Cal/Mol-Kelvin
 Total                   14.625             46.356            151.189
 Electronic               0.000              0.000              0.000
 Translational            0.889              2.981             47.349
 Rotational               0.889              2.981             37.129
 Vibrational             12.848             40.395             66.711
 Vibration     1          0.594              1.981              5.206
 Vibration     2          0.598              1.970              4.245
 Vibration     3          0.599              1.966              4.034
 Vibration     4          0.600              1.961              3.815
 Vibration     5          0.602              1.956              3.639
 Vibration     6          0.603              1.951              3.518
 Vibration     7          0.604              1.949              3.463
 Vibration     8          0.604              1.948              3.424
 Vibration     9          0.607              1.940              3.248
 Vibration    10          0.607              1.940              3.242
 Vibration    11          0.609              1.933              3.104
 Vibration    12          0.610              1.930              3.050
 Vibration    13          0.613              1.918              2.868
 Vibration    14          0.614              1.915              2.823
 Vibration    15          0.618              1.904              2.688
 Vibration    16          0.618              1.902              2.665
 Vibration    17          0.622              1.891              2.550
 Vibration    18          0.626              1.876              2.405
 Vibration    19          0.629              1.869              2.345
 Vibration    20          0.631              1.861              2.285
 Vibration    21          0.640              1.834              2.094

 Normal termination of Gaussian 09 at Tue Mar  6 15:01:03 2018.
