 Gaussian 09, Revision D.01,
 Gaussian 09:  ES64L-G09RevD.01 24-Apr-2013

 ----------------------------------------------------------------------
 #p PBE1PBE/Def2TZVP scf=(maxcycle=768) opt=(cartesian,maxcycle=512) fr
 eq
 ----------------------------------------------------------------------

 ---------------------
 01Final_coords.xyz_22
 ---------------------
 Symbolic Z-matrix:
 Charge =  0 Multiplicity = 1

 SCF Done:  E(RPBE1PBE) =  -7517.81527819     A.U. after   17 cycles
 SCF Done:  E(RPBE1PBE) =  -7517.82103200     A.U. after   13 cycles
 SCF Done:  E(RPBE1PBE) =  -7517.82247983     A.U. after   12 cycles
 SCF Done:  E(RPBE1PBE) =  -7517.82260307     A.U. after   12 cycles
 SCF Done:  E(RPBE1PBE) =  -7517.82265554     A.U. after   10 cycles
 SCF Done:  E(RPBE1PBE) =  -7517.82267122     A.U. after   10 cycles
 SCF Done:  E(RPBE1PBE) =  -7517.82267513     A.U. after    9 cycles
 SCF Done:  E(RPBE1PBE) =  -7517.82267242     A.U. after   10 cycles
 SCF Done:  E(RPBE1PBE) =  -7517.82267601     A.U. after    4 cycles
 SCF Done:  E(RPBE1PBE) =  -7517.82267665     A.U. after   10 cycles
 SCF Done:  E(RPBE1PBE) =  -7517.82267872     A.U. after    9 cycles
 SCF Done:  E(RPBE1PBE) =  -7517.82267967     A.U. after    9 cycles
 Optimization completed.
    -- Stationary point found.
 Normal termination of Gaussian 09 at Tue Mar  6 14:50:21 2018.

 ----------------------------------------------------------------------
 #P Geom=AllCheck Guess=TCheck SCRF=Check GenChk RPBE1PBE/def2TZVP Freq
 ----------------------------------------------------------------------

 Structure from the checkpoint file:  "Isomer_22.chk"
 ---------------------
 01Final_coords.xyz_22
 ---------------------
 Charge =  0 Multiplicity = 1

                         Standard orientation:
 ---------------------------------------------------------------------
 Center     Atomic      Atomic             Coordinates (Angstroms)
 Number     Number       Type             X           Y           Z
 ---------------------------------------------------------------------
      1         32           0        0.110457    2.169184    1.712549
      2         32           0        0.217360   -2.230698    1.340274
      3         32           0       -1.032954   -0.135611    2.326026
      4         83           0        1.953083   -1.335942   -0.755744
      5         83           0       -2.119016   -1.435525   -0.004154
      6         50           0       -0.449790   -0.453928   -2.321556
      7         50           0        1.826678   -0.033457    1.984522
      8         83           0       -1.734529    1.526087   -0.288297
      9         83           0        1.342872    1.614985   -0.822545
 ---------------------------------------------------------------------

 SCF Done:  E(RPBE1PBE) =  -7517.82267967     A.U. after    1 cycles

 The electronic state is 1-A.
 Alpha  occ. eigenvalues -- -399.09226-399.09156-399.08623 -49.90896 -49.90787
 Alpha  occ. eigenvalues --  -49.90284 -44.38973 -44.38958 -44.38894 -44.38892
 Alpha  occ. eigenvalues --  -44.38823 -44.38795 -44.38359 -44.38337 -44.38299
 Alpha  occ. eigenvalues --   -6.27446  -6.27337  -6.26835  -6.02958  -6.02813
 Alpha  occ. eigenvalues --   -6.01326  -6.01253  -5.13812  -5.13383  -4.42906
 Alpha  occ. eigenvalues --   -4.42873  -4.42865  -4.42671  -4.42647  -4.42552
 Alpha  occ. eigenvalues --   -4.42302  -4.42205  -4.42093  -3.75227  -3.75108
 Alpha  occ. eigenvalues --   -3.75085  -3.74984  -3.74978  -3.74798  -3.73630
 Alpha  occ. eigenvalues --   -3.73583  -3.73509  -3.73411  -3.73265  -3.73177
 Alpha  occ. eigenvalues --   -3.47046  -3.46959  -3.46778  -3.46673  -3.46519
 Alpha  occ. eigenvalues --   -3.46332  -1.22475  -1.22443  -1.22381  -1.22321
 Alpha  occ. eigenvalues --   -1.22278  -1.22222  -1.22202  -1.22132  -1.22008
 Alpha  occ. eigenvalues --   -1.21945  -1.21779  -1.21742  -1.21636  -1.21545
 Alpha  occ. eigenvalues --   -1.21518  -1.09311  -1.09029  -1.08906  -1.08856
 Alpha  occ. eigenvalues --   -1.08751  -1.08700  -1.08630  -1.08526  -1.08425
 Alpha  occ. eigenvalues --   -1.08331  -1.07310  -1.07260  -1.07234  -1.07156
 Alpha  occ. eigenvalues --   -1.07119  -1.07035  -1.06952  -1.06899  -1.06855
 Alpha  occ. eigenvalues --   -1.06788  -1.03260  -1.03255  -1.03058  -1.03018
 Alpha  occ. eigenvalues --   -1.02955  -1.02918  -1.02868  -1.02729  -1.02671
 Alpha  occ. eigenvalues --   -1.02557  -0.68267  -0.62755  -0.60793  -0.55556
 Alpha  occ. eigenvalues --   -0.55213  -0.46388  -0.43843  -0.42801  -0.40442
 Alpha  occ. eigenvalues --   -0.29899  -0.27837  -0.27381  -0.26352  -0.25739
 Alpha  occ. eigenvalues --   -0.24786  -0.23709  -0.22740  -0.21691  -0.21506
 Alpha  occ. eigenvalues --   -0.20338
 Alpha virt. eigenvalues --   -0.08032  -0.07154  -0.06415  -0.06074  -0.05848
 Alpha virt. eigenvalues --   -0.05769  -0.05640  -0.04807  -0.03991  -0.02553
 Alpha virt. eigenvalues --   -0.02371  -0.01006  -0.00795   0.05044   0.05666

 Mulliken charges:
               1
     1  Ge  -0.168017
     2  Ge  -0.113040
     3  Ge  -0.035090
     4  Bi   0.006529
     5  Bi   0.016163
     6  Sn  -0.017449
     7  Sn   0.088167
     8  Bi   0.120211
     9  Bi   0.102526
 Sum of Mulliken charges =   0.00000

 Dipole moment (field-independent basis, Debye):
    X=             -0.0817    Y=              0.6579    Z=             -1.9529  Tot=              2.0623
 Quadrupole moment (field-independent basis, Debye-Ang):
   XX=           -214.6607   YY=           -218.2206   ZZ=           -222.3766
   XY=              0.1974   XZ=              1.2575   YZ=              0.8887

  Exact polarizability: 380.947   0.209 366.760  10.159   5.713 384.414
 Approx polarizability:1168.056   0.7461190.694  25.263  39.1171192.765

                      1                      2                      3
                      A                      A                      A
 Frequencies --     33.4362                50.9145                77.4638
 Red. masses --    138.1909               131.2664               161.6126
 Frc consts  --      0.0910                 0.2005                 0.5714
 IR Inten    --      0.0203                 0.1818                 0.0285

                      4                      5                      6
                      A                      A                      A
 Frequencies --     82.0451                87.9608                93.1823
 Red. masses --    158.6004               149.3377               139.7786
 Frc consts  --      0.6290                 0.6808                 0.7151
 IR Inten    --      0.0264                 0.0491                 0.0269

                      7                      8                      9
                      A                      A                      A
 Frequencies --    103.1545               104.5264               106.4229
 Red. masses --    125.4897               145.4546               144.1922
 Frc consts  --      0.7867                 0.9363                 0.9622
 IR Inten    --      0.0674                 0.2353                 0.1295

                     10                     11                     12
                      A                      A                      A
 Frequencies --    111.6106               118.1909               126.6863
 Red. masses --    144.6415               110.1193               100.4173
 Frc consts  --      1.0616                 0.9063                 0.9496
 IR Inten    --      0.0311                 0.3659                 0.1605

                     13                     14                     15
                      A                      A                      A
 Frequencies --    137.5022               141.1240               144.5099
 Red. masses --    126.0481               125.0622               101.8183
 Frc consts  --      1.4041                 1.4675                 1.2528
 IR Inten    --      0.5593                 0.5370                 0.3192

                     16                     17                     18
                      A                      A                      A
 Frequencies --    150.7450               154.6526               172.3832
 Red. masses --     88.8000                79.9465                85.7696
 Frc consts  --      1.1889                 1.1266                 1.5017
 IR Inten    --      0.0884                 0.2522                 0.4416

                     19                     20                     21
                      A                      A                      A
 Frequencies --    181.7199               188.0751               201.4088
 Red. masses --     86.5136                79.1767                77.1050
 Frc consts  --      1.6832                 1.6501                 1.8428
 IR Inten    --      0.3994                 0.8347                 0.5978

 - Thermochemistry -
 -------------------
 Temperature   298.150 Kelvin.  Pressure   1.00000 Atm.
 Atom     1 has atomic number 32 and mass  73.92118

 Molecular mass:  1293.48874 amu.
 Principal axes and moments of inertia in atomic units:
                           1         2         3
     Eigenvalues --  ******************************
           X            0.99976  -0.00023   0.02212
           Y           -0.00028   0.99973   0.02325
           Z           -0.02212  -0.02325   0.99948
 This molecule is an asymmetric top.
 Rotational symmetry number  1.
 Warning -- assumption of classical behavior for rotation
           may cause significant error
 Rotational temperatures (Kelvin)      0.00516     0.00452     0.00417
 Rotational constants (GHZ):           0.10746     0.09415     0.08685
 Zero-point vibrational energy      15358.3 (Joules/Mol)
                                    3.67073 (Kcal/Mol)
 Warning -- explicit consideration of  21 degrees of freedom as
           vibrations may cause significant error
 Vibrational temperatures:     48.11    73.25   111.45   118.04   126.56
          (Kelvin)            134.07   148.42   150.39   153.12   160.58
                              170.05   182.27   197.83   203.05   207.92
                              216.89   222.51   248.02   261.45   270.60
                              289.78

 Zero-point correction=                           0.005850 (Hartree/Particle)
 Thermal correction to Energy=                    0.023302
 Thermal correction to Enthalpy=                  0.024246
 Thermal correction to Gibbs Free Energy=        -0.048059
 Sum of electronic and zero-point Energies=          -7517.816830
 Sum of electronic and thermal Energies=             -7517.799378
 Sum of electronic and thermal Enthalpies=           -7517.798434
 Sum of electronic and thermal Free Energies=        -7517.870738

                     E (Thermal)             CV                S
                      KCal/Mol        Cal/Mol-Kelvin    Cal/Mol-Kelvin
 Total                   14.622             46.367            152.178
 Electronic               0.000              0.000              0.000
 Translational            0.889              2.981             47.349
 Rotational               0.889              2.981             37.146
 Vibrational             12.845             40.406             67.684
 Vibration     1          0.594              1.983              5.614
 Vibration     2          0.595              1.977              4.782
 Vibration     3          0.599              1.964              3.954
 Vibration     4          0.600              1.961              3.841
 Vibration     5          0.601              1.958              3.705
 Vibration     6          0.602              1.954              3.592
 Vibration     7          0.605              1.947              3.394
 Vibration     8          0.605              1.946              3.368
 Vibration     9          0.605              1.944              3.333
 Vibration    10          0.607              1.940              3.241
 Vibration    11          0.608              1.934              3.130
 Vibration    12          0.611              1.926              2.996
 Vibration    13          0.614              1.916              2.838
 Vibration    14          0.615              1.912              2.789
 Vibration    15          0.616              1.909              2.743
 Vibration    16          0.618              1.902              2.663
 Vibration    17          0.620              1.897              2.614
 Vibration    18          0.626              1.876              2.409
 Vibration    19          0.630              1.865              2.311
 Vibration    20          0.633              1.856              2.247
 Vibration    21          0.638              1.838              2.120

 Normal termination of Gaussian 09 at Tue Mar  6 16:04:57 2018.
