 Gaussian 09, Revision D.01,
 Gaussian 09:  ES64L-G09RevD.01 24-Apr-2013

 ----------------------------------------------------------------------
 #p PBE1PBE/Def2TZVP scf=(maxcycle=768) opt=(cartesian,maxcycle=512) fr
 eq
 ----------------------------------------------------------------------

 ---------------------
 01Final_coords.xyz_10
 ---------------------
 Symbolic Z-matrix:
 Charge =  0 Multiplicity = 1

 SCF Done:  E(RPBE1PBE) =  -7517.81955601     A.U. after   17 cycles
 SCF Done:  E(RPBE1PBE) =  -7517.82548518     A.U. after   13 cycles
 SCF Done:  E(RPBE1PBE) =  -7517.82694664     A.U. after   12 cycles
 SCF Done:  E(RPBE1PBE) =  -7517.82709303     A.U. after   11 cycles
 SCF Done:  E(RPBE1PBE) =  -7517.82719059     A.U. after   11 cycles
 SCF Done:  E(RPBE1PBE) =  -7517.82721346     A.U. after   10 cycles
 SCF Done:  E(RPBE1PBE) =  -7517.82721781     A.U. after    9 cycles
 SCF Done:  E(RPBE1PBE) =  -7517.82721887     A.U. after    9 cycles
 SCF Done:  E(RPBE1PBE) =  -7517.82721717     A.U. after    9 cycles
 SCF Done:  E(RPBE1PBE) =  -7517.82721889     A.U. after    1 cycles
 Optimization completed.
    -- Stationary point found.
 Normal termination of Gaussian 09 at Tue Mar  6 15:49:14 2018.

 ----------------------------------------------------------------------
 #P Geom=AllCheck Guess=TCheck SCRF=Check GenChk RPBE1PBE/def2TZVP Freq
 ----------------------------------------------------------------------

 Structure from the checkpoint file:  "Isomer_10.chk"
 ---------------------
 01Final_coords.xyz_10
 ---------------------
 Charge =  0 Multiplicity = 1

                         Standard orientation:
 ---------------------------------------------------------------------
 Center     Atomic      Atomic             Coordinates (Angstroms)
 Number     Number       Type             X           Y           Z
 ---------------------------------------------------------------------
      1         83           0        1.970320    1.234973   -0.879528
      2         83           0       -0.618313   -2.139037   -0.811426
      3         50           0       -0.568107    0.482999   -2.337605
      4         32           0        1.273264    1.036437    1.912715
      5         50           0       -0.536625    2.568386    0.012851
      6         32           0       -0.498114   -1.272418    2.043813
      7         83           0       -2.428697    0.102973    0.048688
      8         32           0       -1.247533    1.179796    2.381751
      9         83           0        1.924315   -1.400972    0.599047
 ---------------------------------------------------------------------

 SCF Done:  E(RPBE1PBE) =  -7517.82721889     A.U. after    3 cycles

 The electronic state is 1-A.
 Alpha  occ. eigenvalues -- -399.10141-399.09550-399.08790 -49.91743 -49.91180
 Alpha  occ. eigenvalues --  -49.90481 -44.39841 -44.39801 -44.39742 -44.39261
 Alpha  occ. eigenvalues --  -44.39245 -44.39183 -44.38561 -44.38530 -44.38483
 Alpha  occ. eigenvalues --   -6.28279  -6.27727  -6.27044  -6.02413  -6.02330
 Alpha  occ. eigenvalues --   -6.01802  -6.01222  -5.13479  -5.13017  -4.43776
 Alpha  occ. eigenvalues --   -4.43660  -4.43469  -4.43187  -4.43142  -4.42936
 Alpha  occ. eigenvalues --   -4.42530  -4.42423  -4.42273  -3.74716  -3.74628
 Alpha  occ. eigenvalues --   -3.74537  -3.74418  -3.74415  -3.74382  -3.74106
 Alpha  occ. eigenvalues --   -3.74017  -3.73696  -3.73550  -3.73345  -3.73186
 Alpha  occ. eigenvalues --   -3.46721  -3.46609  -3.46470  -3.46230  -3.46164
 Alpha  occ. eigenvalues --   -3.46001  -1.23263  -1.23231  -1.23085  -1.23045
 Alpha  occ. eigenvalues --   -1.22984  -1.22706  -1.22681  -1.22577  -1.22493
 Alpha  occ. eigenvalues --   -1.22445  -1.22008  -1.21966  -1.21817  -1.21753
 Alpha  occ. eigenvalues --   -1.21702  -1.08886  -1.08622  -1.08451  -1.08377
 Alpha  occ. eigenvalues --   -1.08317  -1.08256  -1.08170  -1.08125  -1.08058
 Alpha  occ. eigenvalues --   -1.08001  -1.07644  -1.07499  -1.07399  -1.07284
 Alpha  occ. eigenvalues --   -1.07251  -1.07206  -1.07102  -1.06925  -1.06865
 Alpha  occ. eigenvalues --   -1.06787  -1.03008  -1.02939  -1.02818  -1.02766
 Alpha  occ. eigenvalues --   -1.02698  -1.02421  -1.02384  -1.02293  -1.02189
 Alpha  occ. eigenvalues --   -1.02150  -0.68146  -0.63035  -0.60326  -0.57465
 Alpha  occ. eigenvalues --   -0.53014  -0.46831  -0.44118  -0.42738  -0.40378
 Alpha  occ. eigenvalues --   -0.29900  -0.28187  -0.27289  -0.26271  -0.25327
 Alpha  occ. eigenvalues --   -0.24553  -0.23346  -0.23207  -0.22489  -0.21284
 Alpha  occ. eigenvalues --   -0.20332
 Alpha virt. eigenvalues --   -0.07569  -0.06854  -0.06698  -0.06426  -0.05568
 Alpha virt. eigenvalues --   -0.05407  -0.04562  -0.04231  -0.03777  -0.03362
 Alpha virt. eigenvalues --   -0.02697  -0.02244  -0.01077   0.04540   0.05768

 Mulliken charges:
               1
     1  Bi  -0.003768
     2  Bi   0.005191
     3  Sn  -0.035397
     4  Ge  -0.032505
     5  Sn   0.060844
     6  Ge  -0.032448
     7  Bi   0.112792
     8  Ge  -0.130028
     9  Bi   0.055320
 Sum of Mulliken charges =   0.00000

 Dipole moment (field-independent basis, Debye):
    X=              0.2848    Y=             -1.0277    Z=             -1.3937  Tot=              1.7549
 Quadrupole moment (field-independent basis, Debye-Ang):
   XX=           -214.0184   YY=           -217.2400   ZZ=           -223.7317
   XY=             -1.8891   XZ=             -0.4696   YZ=              0.5499

  Exact polarizability: 373.687  -1.958 382.414   0.380  -0.003 376.227
 Approx polarizability:1147.200  -8.8971176.180 -25.698  14.9261184.891

                      1                      2                      3
                      A                      A                      A
 Frequencies --     41.5621                62.9763                81.4825
 Red. masses --    170.2403               140.4535               138.2726
 Frc consts  --      0.1733                 0.3282                 0.5409
 IR Inten    --      0.0371                 0.0381                 0.0134

                      4                      5                      6
                      A                      A                      A
 Frequencies --     83.0130                88.2102               100.4542
 Red. masses --    158.8914               128.0275               104.0604
 Frc consts  --      0.6451                 0.5869                 0.6187
 IR Inten    --      0.0928                 0.0286                 0.0920

                      7                      8                      9
                      A                      A                      A
 Frequencies --    101.8211               105.9380               108.5592
 Red. masses --    125.9441               128.8612               122.5696
 Frc consts  --      0.7693                 0.8521                 0.8511
 IR Inten    --      0.0666                 0.0411                 0.1202

                     10                     11                     12
                      A                      A                      A
 Frequencies --    114.6282               116.7695               119.3547
 Red. masses --    127.3466               134.5654               121.0112
 Frc consts  --      0.9859                 1.0810                 1.0157
 IR Inten    --      0.3789                 0.0865                 0.1829

                     13                     14                     15
                      A                      A                      A
 Frequencies --    127.5751               136.1247               139.2346
 Red. masses --    110.1514               116.4737               126.8509
 Frc consts  --      1.0563                 1.2716                 1.4489
 IR Inten    --      0.2192                 0.4891                 0.2830

                     16                     17                     18
                      A                      A                      A
 Frequencies --    147.8728               164.6206               167.3770
 Red. masses --    113.9117                84.1414                83.4590
 Frc consts  --      1.4676                 1.3435                 1.3776
 IR Inten    --      0.6881                 0.0312                 0.4463

                     19                     20                     21
                      A                      A                      A
 Frequencies --    171.2186               187.1586               217.5152
 Red. masses --     88.2657                76.1853                74.9863
 Frc consts  --      1.5246                 1.5723                 2.0903
 IR Inten    --      0.1309                 0.2464                 0.9092

 - Thermochemistry -
 -------------------
 Temperature   298.150 Kelvin.  Pressure   1.00000 Atm.
 Atom     1 has atomic number 83 and mass 208.98040

 Molecular mass:  1293.48874 amu.
 Principal axes and moments of inertia in atomic units:
                           1         2         3
     Eigenvalues --  ******************************
           X            0.99971  -0.02396  -0.00007
           Y            0.02396   0.99968   0.00821
           Z           -0.00013  -0.00821   0.99997
 This molecule is an asymmetric top.
 Rotational symmetry number  1.
 Warning -- assumption of classical behavior for rotation
           may cause significant error
 Rotational temperatures (Kelvin)      0.00504     0.00463     0.00403
 Rotational constants (GHZ):           0.10505     0.09644     0.08400
 Zero-point vibrational energy      15452.6 (Joules/Mol)
                                    3.69325 (Kcal/Mol)
 Warning -- explicit consideration of  21 degrees of freedom as
           vibrations may cause significant error
 Vibrational temperatures:     59.80    90.61   117.24   119.44   126.91
          (Kelvin)            144.53   146.50   152.42   156.19   164.92
                              168.01   171.72   183.55   195.85   200.33
                              212.76   236.85   240.82   246.35   269.28
                              312.96

 Zero-point correction=                           0.005886 (Hartree/Particle)
 Thermal correction to Energy=                    0.023304
 Thermal correction to Enthalpy=                  0.024248
 Thermal correction to Gibbs Free Energy=        -0.047673
 Sum of electronic and zero-point Energies=          -7517.821333
 Sum of electronic and thermal Energies=             -7517.803915
 Sum of electronic and thermal Enthalpies=           -7517.802971
 Sum of electronic and thermal Free Energies=        -7517.874892

                     E (Thermal)             CV                S
                      KCal/Mol        Cal/Mol-Kelvin    Cal/Mol-Kelvin
 Total                   14.623             46.364            151.370
 Electronic               0.000              0.000              0.000
 Translational            0.889              2.981             47.349
 Rotational               0.889              2.981             37.177
 Vibrational             12.846             40.402             66.844
 Vibration     1          0.594              1.981              5.183
 Vibration     2          0.597              1.972              4.362
 Vibration     3          0.600              1.962              3.855
 Vibration     4          0.600              1.961              3.818
 Vibration     5          0.601              1.957              3.699
 Vibration     6          0.604              1.949              3.445
 Vibration     7          0.604              1.948              3.419
 Vibration     8          0.605              1.944              3.342
 Vibration     9          0.606              1.942              3.295
 Vibration    10          0.608              1.937              3.189
 Vibration    11          0.608              1.935              3.153
 Vibration    12          0.609              1.933              3.111
 Vibration    13          0.611              1.926              2.982
 Vibration    14          0.614              1.917              2.858
 Vibration    15          0.615              1.914              2.814
 Vibration    16          0.617              1.905              2.699
 Vibration    17          0.623              1.886              2.496
 Vibration    18          0.624              1.883              2.465
 Vibration    19          0.626              1.878              2.422
 Vibration    20          0.632              1.857              2.256
 Vibration    21          0.646              1.814              1.980

 Normal termination of Gaussian 09 at Tue Mar  6 17:48:41 2018.
