 Gaussian 09, Revision D.01,
 Gaussian 09:  ES64L-G09RevD.01 24-Apr-2013

 ----------------------------------------------------------------------
 #p PBE1PBE/Def2TZVP scf=(maxcycle=768) opt=(cartesian,maxcycle=512) fr
 eq
 ----------------------------------------------------------------------

 ---------------------
 01Final_coords.xyz_36
 ---------------------
 Symbolic Z-matrix:
 Charge =  0 Multiplicity = 1

 SCF Done:  E(RPBE1PBE) =  -7517.81023104     A.U. after   16 cycles
 SCF Done:  E(RPBE1PBE) =  -7517.81574417     A.U. after   13 cycles
 SCF Done:  E(RPBE1PBE) =  -7517.81694582     A.U. after   13 cycles
 SCF Done:  E(RPBE1PBE) =  -7517.81702524     A.U. after   11 cycles
 SCF Done:  E(RPBE1PBE) =  -7517.81707184     A.U. after   10 cycles
 SCF Done:  E(RPBE1PBE) =  -7517.81708204     A.U. after   10 cycles
 SCF Done:  E(RPBE1PBE) =  -7517.81708443     A.U. after    9 cycles
 Optimization completed.
    -- Stationary point found.
 Normal termination of Gaussian 09 at Tue Mar  6 15:54:21 2018.

 ----------------------------------------------------------------------
 #P Geom=AllCheck Guess=TCheck SCRF=Check GenChk RPBE1PBE/def2TZVP Freq
 ----------------------------------------------------------------------

 Structure from the checkpoint file:  "Isomer_36.chk"
 ---------------------
 01Final_coords.xyz_36
 ---------------------
 Charge =  0 Multiplicity = 1

                         Standard orientation:
 ---------------------------------------------------------------------
 Center     Atomic      Atomic             Coordinates (Angstroms)
 Number     Number       Type             X           Y           Z
 ---------------------------------------------------------------------
      1         50           0       -0.816959    2.315625    0.648305
      2         50           0       -0.821445   -2.311754    0.654305
      3         83           0        1.184265   -0.004120    1.876026
      4         83           0        1.742025   -1.511448   -0.723441
      5         83           0        1.748923    1.509353   -0.718213
      6         32           0       -0.705141   -1.341405   -2.112855
      7         32           0       -1.561342    0.004864    2.212867
      8         83           0       -2.545709    0.003329   -0.442815
      9         32           0       -0.696912    1.337976   -2.113442
 ---------------------------------------------------------------------

 SCF Done:  E(RPBE1PBE) =  -7517.81708443     A.U. after    1 cycles

 The electronic state is 1-A.
 Alpha  occ. eigenvalues -- -399.09316-399.08322-399.08315 -49.90982 -49.89975
 Alpha  occ. eigenvalues --  -49.89969 -44.39051 -44.39026 -44.39005 -44.38053
 Alpha  occ. eigenvalues --  -44.38046 -44.38037 -44.38031 -44.37978 -44.37971
 Alpha  occ. eigenvalues --   -6.27522  -6.26512  -6.26506  -6.02842  -6.02059
 Alpha  occ. eigenvalues --   -6.02048  -6.01895  -5.13745  -5.13740  -4.42969
 Alpha  occ. eigenvalues --   -4.42868  -4.42806  -4.41987  -4.41980  -4.41918
 Alpha  occ. eigenvalues --   -4.41912  -4.41717  -4.41709  -3.75119  -3.75051
 Alpha  occ. eigenvalues --   -3.74790  -3.74396  -3.74379  -3.74217  -3.74203
 Alpha  occ. eigenvalues --   -3.74123  -3.74091  -3.73991  -3.73981  -3.73923
 Alpha  occ. eigenvalues --   -3.47032  -3.47028  -3.46798  -3.46794  -3.46765
 Alpha  occ. eigenvalues --   -3.46761  -1.22441  -1.22408  -1.22388  -1.22287
 Alpha  occ. eigenvalues --   -1.22251  -1.21527  -1.21501  -1.21481  -1.21461
 Alpha  occ. eigenvalues --   -1.21456  -1.21294  -1.21283  -1.21194  -1.21153
 Alpha  occ. eigenvalues --   -1.21039  -1.09127  -1.09088  -1.08745  -1.08586
 Alpha  occ. eigenvalues --   -1.08524  -1.08456  -1.08014  -1.07956  -1.07879
 Alpha  occ. eigenvalues --   -1.07873  -1.07861  -1.07785  -1.07738  -1.07720
 Alpha  occ. eigenvalues --   -1.07708  -1.07667  -1.07596  -1.07548  -1.07483
 Alpha  occ. eigenvalues --   -1.07387  -1.03232  -1.03216  -1.03154  -1.03138
 Alpha  occ. eigenvalues --   -1.03119  -1.03106  -1.02973  -1.02960  -1.02920
 Alpha  occ. eigenvalues --   -1.02895  -0.68296  -0.63257  -0.59580  -0.59105
 Alpha  occ. eigenvalues --   -0.49305  -0.47589  -0.46861  -0.40681  -0.40563
 Alpha  occ. eigenvalues --   -0.30265  -0.27883  -0.27086  -0.26688  -0.25180
 Alpha  occ. eigenvalues --   -0.24893  -0.23924  -0.22858  -0.22288  -0.20397
 Alpha  occ. eigenvalues --   -0.20272
 Alpha virt. eigenvalues --   -0.07920  -0.07440  -0.06816  -0.06722  -0.05494
 Alpha virt. eigenvalues --   -0.05342  -0.04890  -0.04284  -0.03987  -0.02728
 Alpha virt. eigenvalues --   -0.02409  -0.02372   0.00122   0.04938   0.05675

 Mulliken charges:
               1
     1  Sn   0.065418
     2  Sn   0.065156
     3  Bi   0.120777
     4  Bi   0.039500
     5  Bi   0.036733
     6  Ge  -0.133287
     7  Ge  -0.211342
     8  Bi   0.148058
     9  Ge  -0.131014
 Sum of Mulliken charges =   0.00000

 Dipole moment (field-independent basis, Debye):
    X=              1.3087    Y=             -0.0006    Z=              0.9836  Tot=              1.6371
 Quadrupole moment (field-independent basis, Debye-Ang):
   XX=           -212.5519   YY=           -219.4945   ZZ=           -222.9628
   XY=             -0.0020   XZ=             -0.9069   YZ=              0.0071

  Exact polarizability: 377.508   0.040 387.845  -5.994   0.022 364.619
 Approx polarizability:1160.382   0.1971192.639 -47.979   0.5071204.068

                      1                      2                      3
                      A                      A                      A
 Frequencies --     25.7563                67.9866                71.8656
 Red. masses --    131.8008               101.9451               135.8171
 Frc consts  --      0.0515                 0.2776                 0.4133
 IR Inten    --      0.0111                 0.2140                 0.1401

                      4                      5                      6
                      A                      A                      A
 Frequencies --     76.4820                87.3411                88.0009
 Red. masses --    170.1695               163.0617               168.1239
 Frc consts  --      0.5865                 0.7329                 0.7671
 IR Inten    --      0.0256                 0.2442                 0.1580

                      7                      8                      9
                      A                      A                      A
 Frequencies --     93.6780                97.7362               110.0603
 Red. masses --    177.0535               182.1599               128.5796
 Frc consts  --      0.9154                 1.0252                 0.9177
 IR Inten    --      0.0450                 0.0807                 0.0866

                     10                     11                     12
                      A                      A                      A
 Frequencies --    114.8381               117.5643               128.2027
 Red. masses --    114.4386               101.9392               105.8656
 Frc consts  --      0.8892                 0.8301                 1.0252
 IR Inten    --      0.0177                 0.1312                 0.0207

                     13                     14                     15
                      A                      A                      A
 Frequencies --    135.8050               142.3010               143.1764
 Red. masses --    179.5551                93.5256                94.6287
 Frc consts  --      1.9511                 1.1158                 1.1429
 IR Inten    --      0.0177                 1.8103                 0.6662

                     16                     17                     18
                      A                      A                      A
 Frequencies --    163.5257               167.2836               168.8581
 Red. masses --     86.1138                83.2343                86.2650
 Frc consts  --      1.3567                 1.3723                 1.4492
 IR Inten    --      0.2610                 0.0045                 0.9896

                     19                     20                     21
                      A                      A                      A
 Frequencies --    168.9574               180.3119               191.7879
 Red. masses --     87.0066                83.5102                82.0137
 Frc consts  --      1.4634                 1.5997                 1.7774
 IR Inten    --      0.3553                 0.5634                 0.3025

 - Thermochemistry -
 -------------------
 Temperature   298.150 Kelvin.  Pressure   1.00000 Atm.
 Atom     1 has atomic number 50 and mass 117.90180

 Molecular mass:  1293.48874 amu.
 Principal axes and moments of inertia in atomic units:
                           1         2         3
     Eigenvalues --  ******************************
           X            0.99995   0.00011  -0.00965
           Y           -0.00011   1.00000   0.00006
           Z            0.00965  -0.00006   0.99995
 This molecule is an asymmetric top.
 Rotational symmetry number  1.
 Warning -- assumption of classical behavior for rotation
           may cause significant error
 Rotational temperatures (Kelvin)      0.00528     0.00445     0.00417
 Rotational constants (GHZ):           0.10994     0.09278     0.08695
 Zero-point vibrational energy      15201.7 (Joules/Mol)
                                    3.63328 (Kcal/Mol)
 Warning -- explicit consideration of  21 degrees of freedom as
           vibrations may cause significant error
 Vibrational temperatures:     37.06    97.82   103.40   110.04   125.66
          (Kelvin)            126.61   134.78   140.62   158.35   165.23
                              169.15   184.45   195.39   204.74   206.00
                              235.28   240.68   242.95   243.09   259.43
                              275.94

 Zero-point correction=                           0.005790 (Hartree/Particle)
 Thermal correction to Energy=                    0.023289
 Thermal correction to Enthalpy=                  0.024233
 Thermal correction to Gibbs Free Energy=        -0.048358
 Sum of electronic and zero-point Energies=          -7517.811294
 Sum of electronic and thermal Energies=             -7517.793796
 Sum of electronic and thermal Enthalpies=           -7517.792852
 Sum of electronic and thermal Free Energies=        -7517.865442

                     E (Thermal)             CV                S
                      KCal/Mol        Cal/Mol-Kelvin    Cal/Mol-Kelvin
 Total                   14.614             46.394            152.780
 Electronic               0.000              0.000              0.000
 Translational            0.889              2.981             47.349
 Rotational               0.889              2.981             37.136
 Vibrational             12.836             40.432             68.295
 Vibration     1          0.593              1.985              6.132
 Vibration     2          0.598              1.969              4.211
 Vibration     3          0.598              1.967              4.102
 Vibration     4          0.599              1.965              3.979
 Vibration     5          0.601              1.958              3.719
 Vibration     6          0.601              1.958              3.704
 Vibration     7          0.603              1.954              3.582
 Vibration     8          0.603              1.951              3.499
 Vibration     9          0.606              1.941              3.268
 Vibration    10          0.608              1.937              3.185
 Vibration    11          0.608              1.935              3.140
 Vibration    12          0.611              1.925              2.973
 Vibration    13          0.614              1.918              2.862
 Vibration    14          0.616              1.911              2.773
 Vibration    15          0.616              1.910              2.761
 Vibration    16          0.623              1.887              2.509
 Vibration    17          0.624              1.883              2.466
 Vibration    18          0.625              1.881              2.448
 Vibration    19          0.625              1.881              2.447
 Vibration    20          0.629              1.866              2.325
 Vibration    21          0.634              1.851              2.210

 Normal termination of Gaussian 09 at Tue Mar  6 16:51:16 2018.
